
                                 *****************
                                 * O   R   C   A *
                                 *****************

                                            #,                                       
                                            ###                                      
                                            ####                                     
                                            #####                                    
                                            ######                                   
                                           ########,                                 
                                     ,,################,,,,,                         
                               ,,#################################,,                 
                          ,,##########################################,,             
                       ,#########################################, ''#####,          
                    ,#############################################,,   '####,        
                  ,##################################################,,,,####,       
                ,###########''''           ''''###############################       
              ,#####''   ,,,,##########,,,,          '''####'''          '####       
            ,##' ,,,,###########################,,,                        '##       
           ' ,,###''''                  '''############,,,                           
         ,,##''                                '''############,,,,        ,,,,,,###''
      ,#''                                            '''#######################'''  
     '                                                          ''''####''''         
             ,#######,   #######,   ,#######,      ##                                
            ,#'     '#,  ##    ##  ,#'     '#,    #''#        ######   ,####,        
            ##       ##  ##   ,#'  ##            #'  '#       #        #'  '#        
            ##       ##  #######   ##           ,######,      #####,   #    #        
            '#,     ,#'  ##    ##  '#,     ,#' ,#      #,         ##   #,  ,#        
             '#######'   ##     ##  '#######'  #'      '#     #####' # '####'        



                  #######################################################
                  #                        -***-                        #
                  #          Department of theory and spectroscopy      #
                  #    Directorship and core code : Frank Neese         #
                  #        Max Planck Institute fuer Kohlenforschung    #
                  #                Kaiser Wilhelm Platz 1               #
                  #                 D-45470 Muelheim/Ruhr               #
                  #                      Germany                        #
                  #                                                     #
                  #                  All rights reserved                #
                  #                        -***-                        #
                  #######################################################


                         Program Version 5.0.2 -  RELEASE  -


 With contributions from (in alphabetic order):
   Daniel Aravena         : Magnetic Suceptibility
   Michael Atanasov       : Ab Initio Ligand Field Theory (pilot matlab implementation)
   Alexander A. Auer      : GIAO ZORA, VPT2 properties, NMR spectrum
   Ute Becker             : Parallelization
   Giovanni Bistoni       : ED, misc. LED, open-shell LED, HFLD
   Martin Brehm           : Molecular dynamics
   Dmytro Bykov           : SCF Hessian
   Vijay G. Chilkuri      : MRCI spin determinant printing, contributions to CSF-ICE
   Dipayan Datta          : RHF DLPNO-CCSD density
   Achintya Kumar Dutta   : EOM-CC, STEOM-CC
   Dmitry Ganyushin       : Spin-Orbit,Spin-Spin,Magnetic field MRCI
   Miquel Garcia          : C-PCM and meta-GGA Hessian, CC/C-PCM, Gaussian charge scheme
   Yang Guo               : DLPNO-NEVPT2, F12-NEVPT2, CIM, IAO-localization
   Andreas Hansen         : Spin unrestricted coupled pair/coupled cluster methods
   Benjamin Helmich-Paris : MC-RPA, TRAH-SCF, COSX integrals
   Lee Huntington         : MR-EOM, pCC
   Robert Izsak           : Overlap fitted RIJCOSX, COSX-SCS-MP3, EOM
   Marcus Kettner         : VPT2
   Christian Kollmar      : KDIIS, OOCD, Brueckner-CCSD(T), CCSD density, CASPT2, CASPT2-K
   Simone Kossmann        : Meta GGA functionals, TD-DFT gradient, OOMP2, MP2 Hessian
   Martin Krupicka        : Initial AUTO-CI
   Lucas Lang             : DCDCAS
   Marvin Lechner         : AUTO-CI (C++ implementation), FIC-MRCC
   Dagmar Lenk            : GEPOL surface, SMD
   Dimitrios Liakos       : Extrapolation schemes; Compound Job, initial MDCI parallelization
   Dimitrios Manganas     : Further ROCIS development; embedding schemes
   Dimitrios Pantazis     : SARC Basis sets
   Anastasios Papadopoulos: AUTO-CI, single reference methods and gradients
   Taras Petrenko         : DFT Hessian,TD-DFT gradient, ASA, ECA, R-Raman, ABS, FL, XAS/XES, NRVS
   Peter Pinski           : DLPNO-MP2, DLPNO-MP2 Gradient
   Christoph Reimann      : Effective Core Potentials
   Marius Retegan         : Local ZFS, SOC
   Christoph Riplinger    : Optimizer, TS searches, QM/MM, DLPNO-CCSD(T), (RO)-DLPNO pert. Triples
   Tobias Risthaus        : Range-separated hybrids, TD-DFT gradient, RPA, STAB
   Michael Roemelt        : Original ROCIS implementation
   Masaaki Saitow         : Open-shell DLPNO-CCSD energy and density
   Barbara Sandhoefer     : DKH picture change effects
   Avijit Sen             : IP-ROCIS
   Kantharuban Sivalingam : CASSCF convergence, NEVPT2, FIC-MRCI
   Bernardo de Souza      : ESD, SOC TD-DFT
   Georgi Stoychev        : AutoAux, RI-MP2 NMR, DLPNO-MP2 response
   Willem Van den Heuvel  : Paramagnetic NMR
   Boris Wezisla          : Elementary symmetry handling
   Frank Wennmohs         : Technical directorship


 We gratefully acknowledge several colleagues who have allowed us to
 interface, adapt or use parts of their codes:
   Stefan Grimme, W. Hujo, H. Kruse, P. Pracht,  : VdW corrections, initial TS optimization,
                  C. Bannwarth, S. Ehlert          DFT functionals, gCP, sTDA/sTD-DF
   Ed Valeev, F. Pavosevic, A. Kumar             : LibInt (2-el integral package), F12 methods
   Garnet Chan, S. Sharma, J. Yang, R. Olivares  : DMRG
   Ulf Ekstrom                                   : XCFun DFT Library
   Mihaly Kallay                                 : mrcc  (arbitrary order and MRCC methods)
   Jiri Pittner, Ondrej Demel                    : Mk-CCSD
   Frank Weinhold                                : gennbo (NPA and NBO analysis)
   Christopher J. Cramer and Donald G. Truhlar   : smd solvation model
   Lars Goerigk                                  : TD-DFT with DH, B97 family of functionals
   V. Asgeirsson, H. Jonsson                     : NEB implementation
   FAccTs GmbH                                   : IRC, NEB, NEB-TS, DLPNO-Multilevel, CI-OPT
                                                   MM, QMMM, 2- and 3-layer-ONIOM, Crystal-QMMM,
                                                   LR-CPCM, SF, NACMEs, symmetry and pop. for TD-DFT,
                                                   nearIR, NL-DFT gradient (VV10), updates on ESD,
                                                   ML-optimized integration grids
   S Lehtola, MJT Oliveira, MAL Marques          : LibXC Library
   Liviu Ungur et al                             : ANISO software


 Your calculation uses the libint2 library for the computation of 2-el integrals
 For citations please refer to: http://libint.valeyev.net

 Your ORCA version has been built with support for libXC version: 5.1.0
 For citations please refer to: https://tddft.org/programs/libxc/

 This ORCA versions uses:
   CBLAS   interface :  Fast vector & matrix operations
   LAPACKE interface :  Fast linear algebra routines
   SCALAPACK package :  Parallel linear algebra routines
   Shared memory     :  Shared parallel matrices
   BLAS/LAPACK       :  OpenBLAS 0.3.15  USE64BITINT DYNAMIC_ARCH NO_AFFINITY SkylakeX SINGLE_THREADED
        Core in use  :  SkylakeX
   Copyright (c) 2011-2014, The OpenBLAS Project


Your calculation utilizes the atom-pairwise dispersion correction
with the Becke-Johnson damping scheme (D3BJ)
Cite in your paper:
S.Grimme, S.Ehrlich, L.Goerigk, J Comput Chem, (2011), 32, 1456–1465 
S.Grimme, J.Antony, S.Ehrlich and H.Krieg, J.Chem.Phys., 132, (2010), 154104 
   

Your calculation utilizes the SMD solvation module
Please cite in your paper:
A.V. Marenich, C.J. Cramer, D.G. Truhlar J. Phys. Chem. B, 113, (2009), 6378 

================================================================================

----- Orbital basis set information -----
Your calculation utilizes the basis: aug-cc-pVTZ 
    H, B-Ne : Obtained from the ccRepo (grant-hill.group.shef.ac.uk/ccrepo) Feb. 2017
              R. A. Kendall, T. H. Dunning, Jr., R. J. Harrison, J. Chem. Phys. 96, 6796 (1992)
         He : Obtained from the ccRepo (grant-hill.group.shef.ac.uk/ccrepo) Feb. 2017
              D. E. Woon, T. H. Dunning, Jr., J. Chem. Phys. 100, 2975 (1994)
  Li-Be, Na : Obtained from the ccRepo (grant-hill.group.shef.ac.uk/ccrepo) Feb. 2017
              B. P. Prascher, D. E. Woon, K. A. Peterson, T. H. Dunning, Jr., A. K. Wilson, Theor. Chem. Acc. 128, 69 (2011)
         Mg : Obtained from the Peterson Research Group Website (tyr0.chem.wsu.edu/~kipeters) Feb. 2017
              B. P. Prascher, D. E. Woon, K. A. Peterson, T. H. Dunning, Jr., A. K. Wilson, Theor. Chem. Acc. 128, 69 (2011)
      Al-Ar : Obtained from the ccRepo (grant-hill.group.shef.ac.uk/ccrepo) Feb. 2017
              D. E. Woon, T. H. Dunning, Jr., J. Chem. Phys. 98, 1358 (1993)
      Sc-Zn : Obtained from the ccRepo (grant-hill.group.shef.ac.uk/ccrepo) Feb. 2017
              N. B. Balabanov, K. A. Peterson, J. Chem. Phys. 123, 064107 (2005)
              N. B. Balabanov, K. A. Peterson, J. Chem. Phys. 125, 074110 (2006)
      Ga-Kr : Obtained from the ccRepo (grant-hill.group.shef.ac.uk/ccrepo) Feb. 2017
              A. K. Wilson, D. E. Woon, K. A. Peterson, T. H. Dunning, Jr., J. Chem. Phys. 110, 7667 (1999)
     Ag, Au : Obtained from the Peterson Research Group Website (tyr0.chem.wsu.edu/~kipeters) Feb. 2017
              K. A. Peterson, C. Puzzarini, Theor. Chem. Acc. 114, 283 (2005)

The basis set includes element-specific modifications.

Your calculation utilizes the basis: cc-pVTZ 
       H, B-Ne : Obtained from the ccRepo (grant-hill.group.shef.ac.uk/ccrepo) Feb. 2017
                 T. H. Dunning, Jr., J. Chem. Phys. 90, 1007 (1989)
            He : Obtained from the ccRepo (grant-hill.group.shef.ac.uk/ccrepo) Feb. 2017
                 D. E. Woon, T. H. Dunning, Jr., J. Chem. Phys. 100, 2975 (1994)
  Li-Be, Na-Mg : Obtained from the ccRepo (grant-hill.group.shef.ac.uk/ccrepo) Feb. 2017
                 B. P. Prascher, D. E. Woon, K. A. Peterson, T. H. Dunning, Jr., A. K. Wilson, Theor. Chem. Acc. 128, 69 (2011)
         Al-Ar : Obtained from the ccRepo (grant-hill.group.shef.ac.uk/ccrepo) Feb. 2017
                 D. E. Woon, T. H. Dunning, Jr., J. Chem. Phys. 98, 1358 (1993)
            Ca : Obtained from the Peterson Research Group Website (tyr0.chem.wsu.edu/~kipeters) Feb. 2017
                 J. Koput, K. A. Peterson, J. Phys. Chem. 106, 9595 (2002)
         Sc-Zn : Obtained from the ccRepo (grant-hill.group.shef.ac.uk/ccrepo) Feb. 2017
                 N. B. Balabanov, K. A. Peterson, J. Chem. Phys. 123, 064107 (2005)
                 N. B. Balabanov, K. A. Peterson, J. Chem. Phys. 125, 074110 (2006)
         Ga-Kr : Obtained from the ccRepo (grant-hill.group.shef.ac.uk/ccrepo) Feb. 2017
                 A. K. Wilson, D. E. Woon, K. A. Peterson, T. H. Dunning, Jr., J. Chem. Phys. 110, 7667 (1999)
             Y : Obtained from the ccRepo (grant-hill.group.shef.ac.uk/ccrepo) Feb. 2017
                 K. A. Peterson, D. Figgen, M. Dolg, H. Stoll, J. Chem. Phys. 126, 124101 (2007)
        Ag, Au : Obtained from the Peterson Research Group Website (tyr0.chem.wsu.edu/~kipeters) Feb. 2017
                 K. A. Peterson, C. Puzzarini, Theor. Chem. Acc. 114, 283 (2005)

----- AuxJ basis set information -----
Your calculation utilizes the auxiliary basis: aug-cc-pVTZ/JK 
  H, B-F, Al-Cl, Ga-Br : Obtained from the TURBOMOLE 7.0 basis set library

The basis set includes element-specific modifications.

Your calculation utilizes the auxiliary basis: cc-pVTZ/JK 
  H, B-F, Al-Cl, Ga-Br : Obtained from the TURBOMOLE 7.0 basis set library

----- AuxC basis set information -----
Your calculation utilizes the auxiliary basis: aug-cc-pVTZ/C 
  H-He, B-F, Al-Ar, Ga-Kr : Obtained from the EMSL Basis Set Exchange (bse.pnl.gov) Feb. 2017
                            F. Weigend, A. Kohn, C. Hattig, J. Chem. Phys. 116, 3175 (2002)
                   Be, Mg : Obtained from the TURBOMOLE 7.0 basis set library
                            C. Haettig, Phys. Chem. Chem. Phys. 7, 59 (2005)
                       Ne : Obtained from the EMSL Basis Set Exchange (bse.pnl.gov) Feb. 2017
                            C. Haettig, Phys. Chem. Chem. Phys. 7, 59 (2005)
                            F. Weigend, A. Kohn, C. Hattig, J. Chem. Phys. 116, 3175 (2002)
                    Sc-Zn : Obtained from the EMSL Basis Set Exchange (bse.pnl.gov) Feb. 2017
                            J. G. Hill, J. A. Platts, J. Chem. Phys. 128, 044104 (2008)

The basis set includes element-specific modifications.

Your calculation utilizes the auxiliary basis: cc-pVTZ/C 
  Obtained from the EMSL Basis Set Exchange (bse.pnl.gov) Feb. 2017
  H-He, B-F, Al-Ar, Ga-Kr : F. Weigend, A. Kohn, C. Hattig, J. Chem. Phys. 116, 3175 (2002)
             Li-Be, Na-Mg : C. Haettig, Phys. Chem. Chem. Phys. 7, 59 (2005)
                       Ne : C. Haettig, Phys. Chem. Chem. Phys. 7, 59 (2005)
                            F. Weigend, A. Kohn, C. Hattig, J. Chem. Phys. 116, 3175 (2002)
                    Sc-Zn : J. G. Hill, J. A. Platts, J. Chem. Phys. 128, 044104 (2008)

================================================================================
                                        WARNINGS
                       Please study these warnings very carefully!
================================================================================


WARNING: Geometry Optimization
  ===> : Switching off AutoStart
         For restart on a previous wavefunction, please use MOREAD

INFO   : the flag for use of the SHARK integral package has been found!



***************************************
The coordinates will be read from file: 
***************************************


Your calculation utilizes the atom-pairwise dispersion correction
with the Becke-Johnson damping scheme (D3BJ)
Cite in your paper:
S.Grimme, S.Ehrlich, L.Goerigk, J Comput Chem, (2011), 32, 1456–1465 
S.Grimme, J.Antony, S.Ehrlich and H.Krieg, J.Chem.Phys., 132, (2010), 154104 
   

Your calculation utilizes the SMD solvation module
Please cite in your paper:
A.V. Marenich, C.J. Cramer, D.G. Truhlar J. Phys. Chem. B, 113, (2009), 6378 

================================================================================

----- Orbital basis set information -----
Your calculation utilizes the basis: aug-cc-pVTZ 
    H, B-Ne : Obtained from the ccRepo (grant-hill.group.shef.ac.uk/ccrepo) Feb. 2017
              R. A. Kendall, T. H. Dunning, Jr., R. J. Harrison, J. Chem. Phys. 96, 6796 (1992)
         He : Obtained from the ccRepo (grant-hill.group.shef.ac.uk/ccrepo) Feb. 2017
              D. E. Woon, T. H. Dunning, Jr., J. Chem. Phys. 100, 2975 (1994)
  Li-Be, Na : Obtained from the ccRepo (grant-hill.group.shef.ac.uk/ccrepo) Feb. 2017
              B. P. Prascher, D. E. Woon, K. A. Peterson, T. H. Dunning, Jr., A. K. Wilson, Theor. Chem. Acc. 128, 69 (2011)
         Mg : Obtained from the Peterson Research Group Website (tyr0.chem.wsu.edu/~kipeters) Feb. 2017
              B. P. Prascher, D. E. Woon, K. A. Peterson, T. H. Dunning, Jr., A. K. Wilson, Theor. Chem. Acc. 128, 69 (2011)
      Al-Ar : Obtained from the ccRepo (grant-hill.group.shef.ac.uk/ccrepo) Feb. 2017
              D. E. Woon, T. H. Dunning, Jr., J. Chem. Phys. 98, 1358 (1993)
      Sc-Zn : Obtained from the ccRepo (grant-hill.group.shef.ac.uk/ccrepo) Feb. 2017
              N. B. Balabanov, K. A. Peterson, J. Chem. Phys. 123, 064107 (2005)
              N. B. Balabanov, K. A. Peterson, J. Chem. Phys. 125, 074110 (2006)
      Ga-Kr : Obtained from the ccRepo (grant-hill.group.shef.ac.uk/ccrepo) Feb. 2017
              A. K. Wilson, D. E. Woon, K. A. Peterson, T. H. Dunning, Jr., J. Chem. Phys. 110, 7667 (1999)
     Ag, Au : Obtained from the Peterson Research Group Website (tyr0.chem.wsu.edu/~kipeters) Feb. 2017
              K. A. Peterson, C. Puzzarini, Theor. Chem. Acc. 114, 283 (2005)

The basis set includes element-specific modifications.

Your calculation utilizes the basis: cc-pVTZ 
       H, B-Ne : Obtained from the ccRepo (grant-hill.group.shef.ac.uk/ccrepo) Feb. 2017
                 T. H. Dunning, Jr., J. Chem. Phys. 90, 1007 (1989)
            He : Obtained from the ccRepo (grant-hill.group.shef.ac.uk/ccrepo) Feb. 2017
                 D. E. Woon, T. H. Dunning, Jr., J. Chem. Phys. 100, 2975 (1994)
  Li-Be, Na-Mg : Obtained from the ccRepo (grant-hill.group.shef.ac.uk/ccrepo) Feb. 2017
                 B. P. Prascher, D. E. Woon, K. A. Peterson, T. H. Dunning, Jr., A. K. Wilson, Theor. Chem. Acc. 128, 69 (2011)
         Al-Ar : Obtained from the ccRepo (grant-hill.group.shef.ac.uk/ccrepo) Feb. 2017
                 D. E. Woon, T. H. Dunning, Jr., J. Chem. Phys. 98, 1358 (1993)
            Ca : Obtained from the Peterson Research Group Website (tyr0.chem.wsu.edu/~kipeters) Feb. 2017
                 J. Koput, K. A. Peterson, J. Phys. Chem. 106, 9595 (2002)
         Sc-Zn : Obtained from the ccRepo (grant-hill.group.shef.ac.uk/ccrepo) Feb. 2017
                 N. B. Balabanov, K. A. Peterson, J. Chem. Phys. 123, 064107 (2005)
                 N. B. Balabanov, K. A. Peterson, J. Chem. Phys. 125, 074110 (2006)
         Ga-Kr : Obtained from the ccRepo (grant-hill.group.shef.ac.uk/ccrepo) Feb. 2017
                 A. K. Wilson, D. E. Woon, K. A. Peterson, T. H. Dunning, Jr., J. Chem. Phys. 110, 7667 (1999)
             Y : Obtained from the ccRepo (grant-hill.group.shef.ac.uk/ccrepo) Feb. 2017
                 K. A. Peterson, D. Figgen, M. Dolg, H. Stoll, J. Chem. Phys. 126, 124101 (2007)
        Ag, Au : Obtained from the Peterson Research Group Website (tyr0.chem.wsu.edu/~kipeters) Feb. 2017
                 K. A. Peterson, C. Puzzarini, Theor. Chem. Acc. 114, 283 (2005)

----- AuxJ basis set information -----
Your calculation utilizes the auxiliary basis: aug-cc-pVTZ/JK 
  H, B-F, Al-Cl, Ga-Br : Obtained from the TURBOMOLE 7.0 basis set library

The basis set includes element-specific modifications.

Your calculation utilizes the auxiliary basis: cc-pVTZ/JK 
  H, B-F, Al-Cl, Ga-Br : Obtained from the TURBOMOLE 7.0 basis set library

----- AuxC basis set information -----
Your calculation utilizes the auxiliary basis: aug-cc-pVTZ/C 
  H-He, B-F, Al-Ar, Ga-Kr : Obtained from the EMSL Basis Set Exchange (bse.pnl.gov) Feb. 2017
                            F. Weigend, A. Kohn, C. Hattig, J. Chem. Phys. 116, 3175 (2002)
                   Be, Mg : Obtained from the TURBOMOLE 7.0 basis set library
                            C. Haettig, Phys. Chem. Chem. Phys. 7, 59 (2005)
                       Ne : Obtained from the EMSL Basis Set Exchange (bse.pnl.gov) Feb. 2017
                            C. Haettig, Phys. Chem. Chem. Phys. 7, 59 (2005)
                            F. Weigend, A. Kohn, C. Hattig, J. Chem. Phys. 116, 3175 (2002)
                    Sc-Zn : Obtained from the EMSL Basis Set Exchange (bse.pnl.gov) Feb. 2017
                            J. G. Hill, J. A. Platts, J. Chem. Phys. 128, 044104 (2008)

The basis set includes element-specific modifications.

Your calculation utilizes the auxiliary basis: cc-pVTZ/C 
  Obtained from the EMSL Basis Set Exchange (bse.pnl.gov) Feb. 2017
  H-He, B-F, Al-Ar, Ga-Kr : F. Weigend, A. Kohn, C. Hattig, J. Chem. Phys. 116, 3175 (2002)
             Li-Be, Na-Mg : C. Haettig, Phys. Chem. Chem. Phys. 7, 59 (2005)
                       Ne : C. Haettig, Phys. Chem. Chem. Phys. 7, 59 (2005)
                            F. Weigend, A. Kohn, C. Hattig, J. Chem. Phys. 116, 3175 (2002)
                    Sc-Zn : J. G. Hill, J. A. Platts, J. Chem. Phys. 128, 044104 (2008)

================================================================================
                                        WARNINGS
                       Please study these warnings very carefully!
================================================================================

INFO   : Checking CIS options ...
  ===> : (D) CORRECTION FOUND - SETTING MODE=3
  ===> : JK MODE FOUND - ACTIVATING RI-MP2 CODE
  ===> : MP2 AND CIS FOUND - CHECKING
WARNING: CIS(D) and MP2 runs must have the same orbital window
  ===> : adjusting orbital windows

WARNING: No MP2 level density has been requested!
         To caclulate MP2 level properties use
         %mp2 Density relaxed end
         or
         %mp2 Density unrelaxed end
         Otherwise for double-hybrid DFT only the energy is correct!

WARNING: The frozen-core approximation is turned on by default for 
         the MP2 part of double-hybrid DFT.

WARNING:  You are using a Range-Separated Double Hybrid functional with Doubles Correction 
          Changing Mode to AOINTS 


INFO   : the flag for use of the SHARK integral package has been found!

================================================================================
                                       INPUT FILE
================================================================================
NAME = optpbed3-wb2plyp-train-5.inp
|  1> ! pbe0 d3bj aug-cc-PVTZ RIJCOSX Opt
|  2> %maxcore 4000
|  3> %basis
|  4>  AuxJ "aug-cc-PVTZ/JK"
|  5>  AuxC "aug-cc-PVTZ/C"
|  6>  newGTO H "cc-PVTZ" end
|  7>  newAuxJGTO H "cc-PVTZ/JK" end
|  8>  newAuxCGTO H "cc-PVTZ/C" end
|  9> end
| 10> %cpcm
| 11>  SMD true
| 12>  SMDsolvent "dichloromethane"
| 13> end
| 14> %pal nprocs 4 end
| 15> * xyz 0 1
| 16> O          1.37360       -3.19720        0.27300
| 17> N          0.43480       -2.34810        0.16420
| 18> C          0.68430       -1.00440        0.07990
| 19> C          2.06010       -0.58820        0.10840
| 20> C          2.45480        0.68660       -0.04490
| 21> C          3.81500        1.17730       -0.01470
| 22> C          4.03890        2.54900       -0.17530
| 23> C          5.31730        3.06950       -0.14920
| 24> C          6.40480        2.23130        0.03690
| 25> C          6.20080        0.86930        0.19610
| 26> C          4.92380        0.34560        0.17150
| 27> N         -0.28860       -0.11830       -0.00780
| 28> C         -1.55630       -0.49690       -0.04370
| 29> N         -2.54310        0.44490       -0.11120
| 30> C         -2.47310        1.83250       -0.12240
| 31> C         -3.65380        2.53130       -0.38160
| 32> C         -3.66330        3.91180       -0.39780
| 33> C         -2.49840        4.62010       -0.15350
| 34> C         -1.32800        3.93050        0.11450
| 35> C         -1.30690        2.54860        0.13460
| 36> C         -1.89660       -1.87410       -0.01220
| 37> C         -0.86350       -2.77240        0.12310
| 38> C         -1.05330       -4.24890        0.24110
| 39> C         -2.49650       -4.60850        0.56160
| 40> C         -3.42190       -3.84490       -0.37670
| 41> C         -3.32360       -2.34580       -0.10360
| 42> H          2.75490       -1.40150        0.25770
| 43> H          1.69090        1.43460       -0.21110
| 44> H          3.19350        3.20660       -0.32130
| 45> H          5.46950        4.13190       -0.27410
| 46> H          7.40580        2.63640        0.05730
| 47> H          7.04650        0.21260        0.34060
| 48> H          4.78350       -0.71650        0.29630
| 49> H         -3.47930        0.08000       -0.20720
| 50> H         -4.56780        1.98400       -0.57170
| 51> H         -4.58500        4.43650       -0.60230
| 52> H         -2.50570        5.69930       -0.16860
| 53> H         -0.41720        4.47550        0.31530
| 54> H         -0.40160        2.00990        0.35070
| 55> H         -0.73870       -4.71330       -0.69920
| 56> H         -0.36190       -4.61450        1.00560
| 57> H         -2.64230       -5.68350        0.45150
| 58> H         -2.72490       -4.34050        1.59530
| 59> H         -4.45570       -4.16960       -0.24700
| 60> H         -3.13190       -4.04740       -1.40980
| 61> H         -3.83910       -1.80770       -0.90550
| 62> H         -3.83470       -2.11390        0.83780
| 63> *
| 64> 
| 65> 
| 66> $new_job
| 67> ! wb2plyp aug-cc-PVTZ RIJCOSX SP
| 68> %maxcore 4000
| 69> %basis
| 70>  AuxJ "aug-cc-PVTZ/JK"
| 71>  AuxC "aug-cc-PVTZ/C"
| 72>  newGTO H "cc-PVTZ" end
| 73>  newAuxJGTO H "cc-PVTZ/JK" end
| 74>  newAuxCGTO H "cc-PVTZ/C" end
| 75> end
| 76> %cpcm
| 77>  SMD true
| 78>  SMDsolvent "dichloromethane"
| 79> end
| 80> %pal nprocs 4 end
| 81> %tddft
| 82>  nroots 10
| 83>  maxdim 7
| 84> end
| 85> * xyzfile 0 1
| 86> 
| 87>                          ****END OF INPUT****
================================================================================


                 $$$$$$$$$$$$$$$$$$$$$$$$$$$$$$$$$$$$$$$$$$$$$$ 
                 $ THERE ARE  2 JOBS TO BE PROCESSED THIS RUN $
                 $$$$$$$$$$$$$$$$$$$$$$$$$$$$$$$$$$$$$$$$$$$$$$ 




                 $$$$$$$$$$$$$$$$  JOB NUMBER  1 $$$$$$$$$$$$$$


                       *****************************
                       * Geometry Optimization Run *
                       *****************************

Geometry optimization settings:
Update method            Update   .... BFGS
Choice of coordinates    CoordSys .... Z-matrix Internals
Initial Hessian          InHess   .... Almoef's Model

Convergence Tolerances:
Energy Change            TolE     ....  5.0000e-06 Eh
Max. Gradient            TolMAXG  ....  3.0000e-04 Eh/bohr
RMS Gradient             TolRMSG  ....  1.0000e-04 Eh/bohr
Max. Displacement        TolMAXD  ....  4.0000e-03 bohr
RMS Displacement         TolRMSD  ....  2.0000e-03 bohr
Strict Convergence                ....  False
------------------------------------------------------------------------------
                        ORCA OPTIMIZATION COORDINATE SETUP
------------------------------------------------------------------------------

The optimization will be done in new redundant internal coordinates
Making redundant internal coordinates   ...  (new redundants) done
Evaluating the initial hessian          ...  (Almloef) done
Evaluating the coordinates              ...  done
Calculating the B-matrix                .... done
Calculating the G-matrix                .... done
Diagonalizing the G-matrix              .... done
Small eigenvalue found = 2.257e-03
Small eigenvalue found = 6.688e-03
Small eigenvalue found = 1.039e-02
Small eigenvalue found = 1.451e-02
Small eigenvalue found = 1.975e-02
Small eigenvalue found = 2.567e-02
The first mode is                       ....  128
The number of degrees of freedom        ....  135

    -----------------------------------------------------------------
                    Redundant Internal Coordinates


    -----------------------------------------------------------------
         Definition                    Initial Value    Approx d2E/dq
    -----------------------------------------------------------------
      1. B(N   1,O   0)                  1.2705         0.777459   
      2. B(C   2,N   1)                  1.3693         0.603889   
      3. B(C   3,C   2)                  1.4377         0.524449   
      4. B(C   4,C   3)                  1.3433         0.741781   
      5. B(C   5,C   4)                  1.4463         0.508023   
      6. B(C   6,C   5)                  1.3991         0.604252   
      7. B(C   7,C   6)                  1.3805         0.646876   
      8. B(C   8,C   7)                  1.3856         0.634993   
      9. B(C   9,C   8)                  1.3864         0.633198   
     10. B(C  10,C   5)                  1.3985         0.605564   
     11. B(C  10,C   9)                  1.3804         0.647145   
     12. B(N  11,C   2)                  1.3189         0.726726   
     13. B(C  12,N  11)                  1.3235         0.714413   
     14. B(N  13,C  12)                  1.3658         0.611700   
     15. B(C  14,N  13)                  1.3894         0.560812   
     16. B(C  15,C  14)                  1.3963         0.610579   
     17. B(C  16,C  15)                  1.3806         0.646683   
     18. B(C  17,C  16)                  1.3850         0.636262   
     19. B(C  18,C  17)                  1.3846         0.637238   
     20. B(C  19,C  18)                  1.3822         0.642941   
     21. B(C  19,C  14)                  1.3924         0.619236   
     22. B(C  20,C  12)                  1.4190         0.561718   
     23. B(C  21,C  20)                  1.3757         0.658501   
     24. B(C  21,N   1)                  1.3665         0.610070   
     25. B(C  22,C  21)                  1.4933         0.427465   
     26. B(C  23,C  22)                  1.5215         0.385472   
     27. B(C  24,C  23)                  1.5231         0.383154   
     28. B(C  25,C  24)                  1.5269         0.377797   
     29. B(C  25,C  20)                  1.5057         0.408432   
     30. B(H  26,C   3)                  1.0800         0.373515   
     31. B(H  27,C   4)                  1.0820         0.370874   
     32. B(H  28,C   6)                  1.0810         0.372272   
     33. B(H  29,C   7)                  1.0805         0.372903   
     34. B(H  30,C   8)                  1.0801         0.373496   
     35. B(H  31,C   9)                  1.0804         0.372976   
     36. B(H  32,C  10)                  1.0786         0.375541   
     37. B(H  33,N  13)                  1.0094         0.433702   
     38. B(H  34,C  15)                  1.0822         0.370621   
     39. B(H  35,C  16)                  1.0801         0.373409   
     40. B(H  36,C  17)                  1.0793         0.374495   
     41. B(H  37,C  18)                  1.0802         0.373256   
     42. B(H  38,H  28)                  3.8482         0.000003   
     43. B(H  38,C  19)                  1.0754         0.379954   
     44. B(H  39,C  22)                  1.0949         0.353677   
     45. B(H  40,C  22)                  1.0937         0.355252   
     46. B(H  41,C  23)                  1.0904         0.359552   
     47. B(H  42,C  23)                  1.0920         0.357427   
     48. B(H  43,C  24)                  1.0913         0.358349   
     49. B(H  44,C  24)                  1.0920         0.357501   
     50. B(H  45,C  25)                  1.0947         0.353955   
     51. B(H  46,C  25)                  1.0960         0.352239   
     52. A(O   0,N   1,C   2)          121.7675         0.441146   
     53. A(C   2,N   1,C  21)          118.4229         0.425163   
     54. A(O   0,N   1,C  21)          119.8090         0.441959   
     55. A(N   1,C   2,N  11)          121.9379         0.438744   
     56. A(C   3,C   2,N  11)          120.8475         0.430566   
     57. A(N   1,C   2,C   3)          117.2096         0.416547   
     58. A(C   4,C   3,H  26)          122.7781         0.366126   
     59. A(C   2,C   3,C   4)          123.6190         0.435002   
     60. A(C   2,C   3,H  26)          113.6012         0.345211   
     61. A(C   3,C   4,H  27)          117.7854         0.365681   
     62. A(C   5,C   4,H  27)          115.6353         0.342964   
     63. A(C   3,C   4,C   5)          126.5791         0.432518   
     64. A(C   4,C   5,C   6)          118.7335         0.416939   
     65. A(C   6,C   5,C  10)          118.1291         0.430238   
     66. A(C   4,C   5,C  10)          123.1372         0.417100   
     67. A(C   5,C   6,C   7)          121.0417         0.435373   
     68. A(C   7,C   6,H  28)          119.8289         0.357468   
     69. A(C   5,C   6,H  28)          119.1294         0.353358   
     70. A(C   6,C   7,C   8)          120.0829         0.439286   
     71. A(C   6,C   7,H  29)          119.9317         0.357571   
     72. A(C   8,C   7,H  29)          119.9854         0.356447   
     73. A(C   7,C   8,H  30)          120.2022         0.356543   
     74. A(C   9,C   8,H  30)          120.1781         0.356372   
     75. A(C   7,C   8,C   9)          119.6197         0.437595   
     76. A(C  10,C   9,H  31)          119.7282         0.357608   
     77. A(C   8,C   9,C  10)          120.4497         0.439094   
     78. A(C   8,C   9,H  31)          119.8221         0.356287   
     79. A(C   9,C  10,H  32)          119.4623         0.358025   
     80. A(C   5,C  10,H  32)          119.8608         0.354012   
     81. A(C   5,C  10,C   9)          120.6768         0.435576   
     82. A(C   2,N  11,C  12)          121.0766         0.452304   
     83. A(N  11,C  12,C  20)          120.4471         0.434575   
     84. A(N  13,C  12,C  20)          119.8081         0.422645   
     85. A(N  11,C  12,N  13)          119.7448         0.438408   
     86. A(C  14,N  13,H  33)          114.0166         0.352751   
     87. A(C  12,N  13,H  33)          115.1859         0.357987   
     88. A(C  12,N  13,C  14)          130.7436         0.419779   
     89. A(C  15,C  14,C  19)          119.0191         0.432776   
     90. A(N  13,C  14,C  19)          123.6637         0.423449   
     91. A(N  13,C  14,C  15)          117.3045         0.422385   
     92. A(C  14,C  15,H  34)          119.5844         0.353716   
     93. A(C  16,C  15,H  34)          119.8564         0.357180   
     94. A(C  14,C  15,C  16)          120.5592         0.436167   
     95. A(C  17,C  16,H  35)          120.1767         0.356650   
     96. A(C  15,C  16,H  35)          119.5924         0.357635   
     97. A(C  15,C  16,C  17)          120.2309         0.439420   
     98. A(C  16,C  17,H  36)          120.2101         0.356826   
     99. A(C  16,C  17,C  18)          119.3650         0.438255   
    100. A(C  18,C  17,H  36)          120.4245         0.356918   
    101. A(C  19,C  18,H  37)          119.2640         0.357258   
    102. A(C  17,C  18,H  37)          119.8285         0.356718   
    103. A(C  17,C  18,C  19)          120.9070         0.439082   
    104. A(C  14,C  19,C  18)          119.9138         0.436818   
    105. A(C  18,C  19,H  38)          121.1042         0.358340   
    106. A(C  14,C  19,H  38)          118.9815         0.356060   
    107. A(C  12,C  20,C  21)          117.1191         0.431074   
    108. A(C  12,C  20,C  25)          122.0046         0.396022   
    109. A(C  21,C  20,C  25)          120.8715         0.407270   
    110. A(N   1,C  21,C  20)          120.9103         0.434660   
    111. A(C  20,C  21,C  22)          123.9140         0.410568   
    112. A(N   1,C  21,C  22)          115.1751         0.402455   
    113. A(H  39,C  22,H  40)          106.0742         0.289403   
    114. A(C  21,C  22,H  40)          107.7824         0.330863   
    115. A(C  21,C  22,C  23)          111.7709         0.373862   
    116. A(C  23,C  22,H  39)          110.6839         0.325031   
    117. A(C  21,C  22,H  39)          108.3602         0.330620   
    118. A(C  23,C  22,H  40)          111.9253         0.325269   
    119. A(C  24,C  23,H  42)          109.4525         0.325272   
    120. A(C  22,C  23,H  42)          109.8641         0.325595   
    121. A(C  24,C  23,H  41)          110.5372         0.325590   
    122. A(C  22,C  23,H  41)          109.7899         0.325913   
    123. A(C  22,C  23,C  24)          109.1508         0.366893   
    124. A(H  41,C  23,H  42)          108.0325         0.290430   
    125. A(H  43,C  24,H  44)          107.9893         0.290287   
    126. A(C  25,C  24,H  44)          109.5226         0.324532   
    127. A(C  23,C  24,H  44)          109.1779         0.325284   
    128. A(C  25,C  24,H  43)          109.3799         0.324658   
    129. A(C  23,C  24,H  43)          110.6813         0.325410   
    130. A(C  23,C  24,C  25)          110.0541         0.365631   
    131. A(H  45,C  25,H  46)          107.7941         0.289053   
    132. A(C  24,C  25,H  46)          109.3496         0.323742   
    133. A(C  20,C  25,H  46)          108.8763         0.327922   
    134. A(C  24,C  25,H  45)          108.7392         0.324001   
    135. A(C  20,C  25,H  45)          109.6801         0.328185   
    136. A(C  20,C  25,C  24)          112.2983         0.369660   
    137. D(N  11,C   2,N   1,C  21)      1.5832         0.029413   
    138. D(C   3,C   2,N   1,C  21)   -179.2192         0.029413   
    139. D(C   3,C   2,N   1,O   0)      0.4978         0.029413   
    140. D(N  11,C   2,N   1,O   0)   -178.6997         0.029413   
    141. D(C   4,C   3,C   2,N  11)     -4.8789         0.018765   
    142. D(C   4,C   3,C   2,N   1)    175.9143         0.018765   
    143. D(H  26,C   3,C   2,N  11)    175.5865         0.018765   
    144. D(H  26,C   3,C   2,N   1)     -3.6203         0.018765   
    145. D(H  27,C   4,C   3,H  26)    178.6916         0.039158   
    146. D(C   5,C   4,C   3,C   2)    179.3615         0.039158   
    147. D(H  27,C   4,C   3,C   2)     -0.8011         0.039158   
    148. D(C   5,C   4,C   3,H  26)     -1.1458         0.039158   
    149. D(C  10,C   5,C   4,C   3)      0.7097         0.017586   
    150. D(C  10,C   5,C   4,H  27)   -179.1308         0.017586   
    151. D(C   6,C   5,C   4,H  27)      1.0438         0.017586   
    152. D(C   6,C   5,C   4,C   3)   -179.1157         0.017586   
    153. D(C   7,C   6,C   5,C  10)     -0.0894         0.025190   
    154. D(H  28,C   6,C   5,C   4)     -0.2265         0.025190   
    155. D(C   7,C   6,C   5,C   4)    179.7448         0.025190   
    156. D(H  28,C   6,C   5,C  10)    179.9393         0.025190   
    157. D(H  29,C   7,C   6,H  28)      0.0337         0.029116   
    158. D(H  29,C   7,C   6,C   5)   -179.9374         0.029116   
    159. D(C   8,C   7,C   6,H  28)   -179.9660         0.029116   
    160. D(C   8,C   7,C   6,C   5)      0.0629         0.029116   
    161. D(H  30,C   8,C   7,C   6)    179.9787         0.027986   
    162. D(H  30,C   8,C   7,H  29)     -0.0210         0.027986   
    163. D(C   9,C   8,C   7,C   6)      0.0128         0.027986   
    164. D(C   9,C   8,C   7,H  29)   -179.9869         0.027986   
    165. D(C  10,C   9,C   8,H  30)    179.9741         0.027818   
    166. D(C  10,C   9,C   8,C   7)     -0.0600         0.027818   
    167. D(H  31,C   9,C   8,C   7)    179.9490         0.027818   
    168. D(H  31,C   9,C   8,H  30)     -0.0169         0.027818   
    169. D(H  32,C  10,C   9,H  31)     -0.0506         0.029142   
    170. D(C   5,C  10,C   9,H  31)   -179.9769         0.029142   
    171. D(C   5,C  10,C   9,C   8)      0.0320         0.029142   
    172. D(H  32,C  10,C   5,C   6)   -179.8842         0.025306   
    173. D(H  32,C  10,C   5,C   4)      0.2894         0.025306   
    174. D(H  32,C  10,C   9,C   8)    179.9583         0.029142   
    175. D(C   9,C  10,C   5,C   6)      0.0419         0.025306   
    176. D(C   9,C  10,C   5,C   4)   -179.7845         0.025306   
    177. D(C  12,N  11,C   2,C   3)    179.5281         0.039845   
    178. D(C  12,N  11,C   2,N   1)     -1.3032         0.039845   
    179. D(C  20,C  12,N  11,C   2)     -1.1248         0.038374   
    180. D(N  13,C  12,N  11,C   2)    178.8596         0.038374   
    181. D(H  33,N  13,C  12,C  20)     -4.5445         0.030236   
    182. D(C  14,N  13,C  12,C  20)    178.3242         0.030236   
    183. D(H  33,N  13,C  12,N  11)    175.4709         0.030236   
    184. D(C  14,N  13,C  12,N  11)     -1.6603         0.030236   
    185. D(C  19,C  14,N  13,H  33)    173.0555         0.025122   
    186. D(C  15,C  14,N  13,H  33)     -5.6317         0.025122   
    187. D(C  15,C  14,N  13,C  12)    171.5262         0.025122   
    188. D(C  19,C  14,N  13,C  12)     -9.7866         0.025122   
    189. D(H  34,C  15,C  14,C  19)   -179.3274         0.025750   
    190. D(H  34,C  15,C  14,N  13)     -0.5769         0.025750   
    191. D(C  16,C  15,C  14,C  19)      0.7096         0.025750   
    192. D(C  16,C  15,C  14,N  13)    179.4601         0.025750   
    193. D(H  35,C  16,C  15,C  14)    179.8585         0.029097   
    194. D(H  35,C  16,C  15,H  34)     -0.1044         0.029097   
    195. D(C  17,C  16,C  15,H  34)    179.9004         0.029097   
    196. D(C  17,C  16,C  15,C  14)     -0.1366         0.029097   
    197. D(H  36,C  17,C  16,C  15)    179.8521         0.028105   
    198. D(C  18,C  17,C  16,H  35)    179.6250         0.028105   
    199. D(C  18,C  17,C  16,C  15)     -0.3799         0.028105   
    200. D(H  36,C  17,C  16,H  35)     -0.1430         0.028105   
    201. D(H  37,C  18,C  17,H  36)      0.3436         0.028197   
    202. D(H  37,C  18,C  17,C  16)   -179.4239         0.028197   
    203. D(C  19,C  18,C  17,H  36)   -179.9132         0.028197   
    204. D(C  19,C  18,C  17,C  16)      0.3193         0.028197   
    205. D(H  38,C  19,C  18,H  37)      0.2757         0.028739   
    206. D(H  38,C  19,C  18,C  17)   -179.4689         0.028739   
    207. D(C  14,C  19,C  18,H  37)   -179.9956         0.028739   
    208. D(C  14,C  19,C  18,C  17)      0.2598         0.028739   
    209. D(H  38,C  19,C  14,C  15)    178.9673         0.026530   
    210. D(H  38,C  19,C  14,N  13)      0.3013         0.026530   
    211. D(C  18,C  19,C  14,C  15)     -0.7672         0.026530   
    212. D(C  18,C  19,C  14,N  13)   -179.4332         0.026530   
    213. D(C  25,C  20,C  12,N  13)      2.3672         0.021618   
    214. D(C  25,C  20,C  12,N  11)   -177.6484         0.021618   
    215. D(C  21,C  20,C  12,N  13)   -176.8459         0.021618   
    216. D(C  21,C  20,C  12,N  11)      3.1386         0.021618   
    217. D(C  22,C  21,C  20,C  25)     -2.3620         0.030248   
    218. D(C  22,C  21,C  20,C  12)    176.8605         0.030248   
    219. D(N   1,C  21,C  20,C  25)    177.9412         0.030248   
    220. D(N   1,C  21,C  20,C  12)     -2.8363         0.030248   
    221. D(C  22,C  21,N   1,C   2)   -179.1267         0.030063   
    222. D(C  22,C  21,N   1,O   0)      1.1505         0.030063   
    223. D(C  20,C  21,N   1,C   2)      0.5952         0.030063   
    224. D(C  20,C  21,N   1,O   0)   -179.1275         0.030063   
    225. D(H  40,C  22,C  21,C  20)   -138.4476         0.013499   
    226. D(H  40,C  22,C  21,N   1)     41.2650         0.013499   
    227. D(H  39,C  22,C  21,C  20)    107.1707         0.013499   
    228. D(H  39,C  22,C  21,N   1)    -73.1167         0.013499   
    229. D(C  23,C  22,C  21,C  20)    -15.0572         0.013499   
    230. D(C  23,C  22,C  21,N   1)    164.6554         0.013499   
    231. D(H  42,C  23,C  22,H  39)    166.9340         0.011826   
    232. D(H  42,C  23,C  22,C  21)    -72.1796         0.011826   
    233. D(H  41,C  23,C  22,H  40)    -69.8374         0.011826   
    234. D(H  41,C  23,C  22,H  39)     48.2617         0.011826   
    235. D(H  41,C  23,C  22,C  21)    169.1481         0.011826   
    236. D(C  24,C  23,C  22,H  40)    168.8549         0.011826   
    237. D(C  24,C  23,C  22,H  39)    -73.0459         0.011826   
    238. D(H  42,C  23,C  22,H  40)     48.8348         0.011826   
    239. D(C  24,C  23,C  22,C  21)     47.8405         0.011826   
    240. D(H  44,C  24,C  23,H  42)    175.0076         0.011691   
    241. D(H  44,C  24,C  23,C  22)     54.7344         0.011691   
    242. D(H  43,C  24,C  23,H  42)    -66.2545         0.011691   
    243. D(H  43,C  24,C  23,H  41)     52.6199         0.011691   
    244. D(H  43,C  24,C  23,C  22)    173.4723         0.011691   
    245. D(C  25,C  24,C  23,H  42)     54.7683         0.011691   
    246. D(H  44,C  24,C  23,H  41)    -66.1180         0.011691   
    247. D(C  25,C  24,C  23,H  41)    173.6427         0.011691   
    248. D(C  25,C  24,C  23,C  22)    -65.5049         0.011691   
    249. D(H  46,C  25,C  24,H  43)     48.4094         0.011383   
    250. D(H  46,C  25,C  24,C  23)    -73.3904         0.011383   
    251. D(H  45,C  25,C  24,H  44)     49.1172         0.011383   
    252. D(H  45,C  25,C  24,C  23)    169.1480         0.011383   
    253. D(C  20,C  25,C  24,H  44)    -72.4491         0.011383   
    254. D(C  20,C  25,C  24,H  43)    169.3815         0.011383   
    255. D(C  20,C  25,C  24,C  23)     47.5817         0.011383   
    256. D(H  46,C  25,C  20,C  21)    107.0312         0.012359   
    257. D(H  46,C  25,C  20,C  12)    -72.1528         0.012359   
    258. D(H  45,C  25,C  24,H  43)    -69.0523         0.011383   
    259. D(H  45,C  25,C  20,C  21)   -135.2397         0.012359   
    260. D(H  45,C  25,C  20,C  12)     45.5763         0.012359   
    261. D(C  24,C  25,C  20,C  21)    -14.2128         0.012359   
    262. D(H  46,C  25,C  24,H  44)    166.5788         0.011383   
    263. D(C  24,C  25,C  20,C  12)    166.6033         0.012359   
    -----------------------------------------------------------------

Number of atoms                         .... 47
Number of degrees of freedom            .... 263

         *************************************************************
         *                GEOMETRY OPTIMIZATION CYCLE   1            *
         *************************************************************
---------------------------------
CARTESIAN COORDINATES (ANGSTROEM)
---------------------------------
  O      1.373600   -3.197200    0.273000
  N      0.434800   -2.348100    0.164200
  C      0.684300   -1.004400    0.079900
  C      2.060100   -0.588200    0.108400
  C      2.454800    0.686600   -0.044900
  C      3.815000    1.177300   -0.014700
  C      4.038900    2.549000   -0.175300
  C      5.317300    3.069500   -0.149200
  C      6.404800    2.231300    0.036900
  C      6.200800    0.869300    0.196100
  C      4.923800    0.345600    0.171500
  N     -0.288600   -0.118300   -0.007800
  C     -1.556300   -0.496900   -0.043700
  N     -2.543100    0.444900   -0.111200
  C     -2.473100    1.832500   -0.122400
  C     -3.653800    2.531300   -0.381600
  C     -3.663300    3.911800   -0.397800
  C     -2.498400    4.620100   -0.153500
  C     -1.328000    3.930500    0.114500
  C     -1.306900    2.548600    0.134600
  C     -1.896600   -1.874100   -0.012200
  C     -0.863500   -2.772400    0.123100
  C     -1.053300   -4.248900    0.241100
  C     -2.496500   -4.608500    0.561600
  C     -3.421900   -3.844900   -0.376700
  C     -3.323600   -2.345800   -0.103600
  H      2.754900   -1.401500    0.257700
  H      1.690900    1.434600   -0.211100
  H      3.193500    3.206600   -0.321300
  H      5.469500    4.131900   -0.274100
  H      7.405800    2.636400    0.057300
  H      7.046500    0.212600    0.340600
  H      4.783500   -0.716500    0.296300
  H     -3.479300    0.080000   -0.207200
  H     -4.567800    1.984000   -0.571700
  H     -4.585000    4.436500   -0.602300
  H     -2.505700    5.699300   -0.168600
  H     -0.417200    4.475500    0.315300
  H     -0.401600    2.009900    0.350700
  H     -0.738700   -4.713300   -0.699200
  H     -0.361900   -4.614500    1.005600
  H     -2.642300   -5.683500    0.451500
  H     -2.724900   -4.340500    1.595300
  H     -4.455700   -4.169600   -0.247000
  H     -3.131900   -4.047400   -1.409800
  H     -3.839100   -1.807700   -0.905500
  H     -3.834700   -2.113900    0.837800

----------------------------
CARTESIAN COORDINATES (A.U.)
----------------------------
  NO LB      ZA    FRAG     MASS         X           Y           Z
   0 O     8.0000    0    15.999    2.595728   -6.041832    0.515895
   1 N     7.0000    0    14.007    0.821653   -4.437266    0.310293
   2 C     6.0000    0    12.011    1.293140   -1.898041    0.150989
   3 C     6.0000    0    12.011    3.893025   -1.111537    0.204846
   4 C     6.0000    0    12.011    4.638900    1.297486   -0.084849
   5 C     6.0000    0    12.011    7.209305    2.224775   -0.027779
   6 C     6.0000    0    12.011    7.632415    4.816912   -0.331269
   7 C     6.0000    0    12.011   10.048241    5.800514   -0.281947
   8 C     6.0000    0    12.011   12.103318    4.216546    0.069731
   9 C     6.0000    0    12.011   11.717814    1.642739    0.370575
  10 C     6.0000    0    12.011    9.304634    0.653089    0.324088
  11 N     7.0000    0    14.007   -0.545375   -0.223555   -0.014740
  12 C     6.0000    0    12.011   -2.940981   -0.939005   -0.082581
  13 N     7.0000    0    14.007   -4.805763    0.840739   -0.210138
  14 C     6.0000    0    12.011   -4.673482    3.462923   -0.231302
  15 C     6.0000    0    12.011   -6.904681    4.783464   -0.721119
  16 C     6.0000    0    12.011   -6.922634    7.392231   -0.751733
  17 C     6.0000    0    12.011   -4.721292    8.730724   -0.290073
  18 C     6.0000    0    12.011   -2.509556    7.427569    0.216374
  19 C     6.0000    0    12.011   -2.469683    4.816156    0.254357
  20 C     6.0000    0    12.011   -3.584055   -3.541536   -0.023055
  21 C     6.0000    0    12.011   -1.631779   -5.239077    0.232625
  22 C     6.0000    0    12.011   -1.990449   -8.029257    0.455613
  23 C     6.0000    0    12.011   -4.717701   -8.708803    1.061270
  24 C     6.0000    0    12.011   -6.466454   -7.265808   -0.711860
  25 C     6.0000    0    12.011   -6.280694   -4.432920   -0.195776
  26 H     1.0000    0     1.008    5.206007   -2.648451    0.486982
  27 H     1.0000    0     1.008    3.195338    2.711001   -0.398921
  28 H     1.0000    0     1.008    6.034840    6.059596   -0.607169
  29 H     1.0000    0     1.008   10.335857    7.808159   -0.517974
  30 H     1.0000    0     1.008   13.994934    4.982074    0.108281
  31 H     1.0000    0     1.008   13.315955    0.401756    0.643641
  32 H     1.0000    0     1.008    9.039505   -1.353989    0.559926
  33 H     1.0000    0     1.008   -6.574924    0.151178   -0.391551
  34 H     1.0000    0     1.008   -8.631891    3.749217   -1.080356
  35 H     1.0000    0     1.008   -8.664394    8.383770   -1.138182
  36 H     1.0000    0     1.008   -4.735087   10.770116   -0.318608
  37 H     1.0000    0     1.008   -0.788394    8.457469    0.595831
  38 H     1.0000    0     1.008   -0.758914    3.798161    0.662727
  39 H     1.0000    0     1.008   -1.395941   -8.906846   -1.321297
  40 H     1.0000    0     1.008   -0.683892   -8.720141    1.900309
  41 H     1.0000    0     1.008   -4.993223  -10.740258    0.853211
  42 H     1.0000    0     1.008   -5.149315   -8.202356    3.014680
  43 H     1.0000    0     1.008   -8.420053   -7.879402   -0.466762
  44 H     1.0000    0     1.008   -5.918433   -7.648478   -2.664136
  45 H     1.0000    0     1.008   -7.254848   -3.416058   -1.711147
  46 H     1.0000    0     1.008   -7.246533   -3.994692    1.583213

--------------------------------
INTERNAL COORDINATES (ANGSTROEM)
--------------------------------
 O      0   0   0     0.000000000000     0.00000000     0.00000000
 N      1   0   0     1.270493482864     0.00000000     0.00000000
 C      2   1   0     1.369264923234   121.76754634     0.00000000
 C      3   2   1     1.437657932194   117.20963503     0.49781239
 C      4   3   2     1.343281065154   123.61898798   175.91428659
 C      5   4   3     1.446320355246   126.57910677   179.36146582
 C      6   5   4     1.399101304409   118.73345474   180.88431215
 C      7   6   5     1.380546275936   121.04165789   179.74483538
 C      8   7   6     1.385593266439   120.08291397     0.06286992
 C      9   8   7     1.386363819493   119.61971367     0.00000000
 C     10   9   8     1.380433210988   120.44973365   359.94001004
 N      3   2   1     1.318862733570   121.93793572   181.30029250
 C     12   3   2     1.323514284018   121.07661849   358.69678013
 N     13  12   3     1.365766352639   119.74480063   178.85963529
 C     14  13  12     1.389409658812   130.74358042   358.33970763
 C     15  14  13     1.396265938136   117.30450323   171.52621974
 C     16  15  14     1.380627734040   120.55919340   179.46007457
 C     17  16  15     1.385049959388   120.23085549   359.86338244
 C     18  17  16     1.384632918863   119.36500884   359.62012446
 C     19  18  17     1.382207231207   120.90696919     0.31928091
 C     13  12   3     1.418970112441   120.44706267   358.87519667
 C      2   1   3     1.366492806421   119.80897786   179.71322338
 C     22   2   1     1.493318549406   115.17509735     1.15050269
 C     23  22   2     1.521465954269   111.77087799   164.65536493
 C     24  23  22     1.523107681682   109.15079548    47.84046257
 C     21  13  12     1.505717055094   122.00461572   182.35162322
 H      4   3   2     1.080043712078   113.60121253   356.37973110
 H      5   4   3     1.081974884182   117.78542253   359.19890252
 H      7   6   5     1.080950933206   119.12941618   359.77353740
 H      8   7   6     1.080489986071   119.93165720   180.06258642
 H      9   8   7     1.080057021643   120.20220795   179.97869116
 H     10   9   8     1.080436777419   119.82206061   179.94897204
 H     11  10   9     1.078571063955   119.46232136   179.95832820
 H     14  13  12     1.009375277090   115.18587381   175.47092113
 H     16  15  14     1.082160477933   119.58440217   359.42311057
 H     17  16  15     1.080120933044   119.59244863   179.85848932
 H     18  17  16     1.079330320152   120.21006050   179.85211772
 H     19  18  17     1.080232512008   119.82852509   180.57608272
 H     20  19  18     1.075390622053   121.10419894   180.53109237
 H     23  22   2     1.094899360672   108.36024370   286.88327770
 H     23  22   2     1.093689887491   107.78237906    41.26498802
 H     24  23  22     1.090414898101   109.78992196   169.14813840
 H     24  23  22     1.092028502375   109.86405158   287.82039028
 H     25  24  23     1.091326999574   110.68125220   173.47231466
 H     25  24  23     1.091971547248   109.17792947    54.73444486
 H     26  21  13     1.094685100840   109.68009985    45.57632178
 H     26  21  13     1.096008567485   108.87631221   287.84720690

---------------------------
INTERNAL COORDINATES (A.U.)
---------------------------
 O      0   0   0     0.000000000000     0.00000000     0.00000000
 N      1   0   0     2.400884737545     0.00000000     0.00000000
 C      2   1   0     2.587535709698   121.76754634     0.00000000
 C      3   2   1     2.716779766106   117.20963503     0.49781239
 C      4   3   2     2.538433334022   123.61898798   175.91428659
 C      5   4   3     2.733149373331   126.57910677   179.36146582
 C      6   5   4     2.643918298946   118.73345474   180.88431215
 C      7   6   5     2.608854376723   121.04165789   179.74483538
 C      8   7   6     2.618391806574   120.08291397     0.06286992
 C      9   8   7     2.619847940819   119.61971367     0.00000000
 C     10   9   8     2.608640714938   120.44973365   359.94001004
 N      3   2   1     2.492289374682   121.93793572   181.30029250
 C     12   3   2     2.501079531127   121.07661849   358.69678013
 N     13  12   3     2.580924369412   119.74480063   178.85963529
 C     14  13  12     2.625603742980   130.74358042   358.33970763
 C     15  14  13     2.638560233200   117.30450323   171.52621974
 C     16  15  14     2.609008310232   120.55919340   179.46007457
 C     17  16  15     2.617365105042   120.23085549   359.86338244
 C     18  17  16     2.616577012664   119.36500884   359.62012446
 C     19  18  17     2.611993127306   120.90696919     0.31928091
 C     13  12   3     2.681464904732   120.44706267   358.87519667
 C      2   1   3     2.582297168109   119.80897786   179.71322338
 C     22   2   1     2.821963089082   115.17509735     1.15050269
 C     23  22   2     2.875153975654   111.77087799   164.65536493
 C     24  23  22     2.878256390851   109.15079548    47.84046257
 C     21  13  12     2.845392869301   122.00461572   182.35162322
 H      4   3   2     2.040986828492   113.60121253   356.37973110
 H      5   4   3     2.044636214885   117.78542253   359.19890252
 H      7   6   5     2.042701227967   119.12941618   359.77353740
 H      8   7   6     2.041830164119   119.93165720   180.06258642
 H      9   8   7     2.041011979924   120.20220795   179.97869116
 H     10   9   8     2.041729614339   119.82206061   179.94897204
 H     11  10   9     2.038203926846   119.46232136   179.95832820
 H     14  13  12     1.907442840050   115.18587381   175.47092113
 H     16  15  14     2.044986936247   119.58440217   359.42311057
 H     17  16  15     2.041132754969   119.59244863   179.85848932
 H     18  17  16     2.039638713125   120.21006050   179.85211772
 H     19  18  17     2.041343608654   119.82852509   180.57608272
 H     20  19  18     2.032193762668   121.10419894   180.53109237
 H     23  22   2     2.069059935876   108.36024370   286.88327770
 H     23  22   2     2.066774362797   107.78237906    41.26498802
 H     24  23  22     2.060585529758   109.78992196   169.14813840
 H     24  23  22     2.063634799925   109.86405158   287.82039028
 H     25  24  23     2.062309151750   110.68125220   173.47231466
 H     25  24  23     2.063527170334   109.17792947    54.73444486
 H     26  21  13     2.068655043471   109.68009985    45.57632178
 H     26  21  13     2.071156032978   108.87631221   287.84720690

---------------------
BASIS SET INFORMATION
---------------------
There are 4 groups of distinct atoms

 Group   1 Type O   : 19s6p3d2f contracted to 5s4p3d2f pattern {88111/3111/111/11}
 Group   2 Type N   : 19s6p3d2f contracted to 5s4p3d2f pattern {88111/3111/111/11}
 Group   3 Type C   : 19s6p3d2f contracted to 5s4p3d2f pattern {88111/3111/111/11}
 Group   4 Type H   : 5s2p1d contracted to 3s2p1d pattern {311/11/1}

Atom   0O    basis set group =>   1
Atom   1N    basis set group =>   2
Atom   2C    basis set group =>   3
Atom   3C    basis set group =>   3
Atom   4C    basis set group =>   3
Atom   5C    basis set group =>   3
Atom   6C    basis set group =>   3
Atom   7C    basis set group =>   3
Atom   8C    basis set group =>   3
Atom   9C    basis set group =>   3
Atom  10C    basis set group =>   3
Atom  11N    basis set group =>   2
Atom  12C    basis set group =>   3
Atom  13N    basis set group =>   2
Atom  14C    basis set group =>   3
Atom  15C    basis set group =>   3
Atom  16C    basis set group =>   3
Atom  17C    basis set group =>   3
Atom  18C    basis set group =>   3
Atom  19C    basis set group =>   3
Atom  20C    basis set group =>   3
Atom  21C    basis set group =>   3
Atom  22C    basis set group =>   3
Atom  23C    basis set group =>   3
Atom  24C    basis set group =>   3
Atom  25C    basis set group =>   3
Atom  26H    basis set group =>   4
Atom  27H    basis set group =>   4
Atom  28H    basis set group =>   4
Atom  29H    basis set group =>   4
Atom  30H    basis set group =>   4
Atom  31H    basis set group =>   4
Atom  32H    basis set group =>   4
Atom  33H    basis set group =>   4
Atom  34H    basis set group =>   4
Atom  35H    basis set group =>   4
Atom  36H    basis set group =>   4
Atom  37H    basis set group =>   4
Atom  38H    basis set group =>   4
Atom  39H    basis set group =>   4
Atom  40H    basis set group =>   4
Atom  41H    basis set group =>   4
Atom  42H    basis set group =>   4
Atom  43H    basis set group =>   4
Atom  44H    basis set group =>   4
Atom  45H    basis set group =>   4
Atom  46H    basis set group =>   4
---------------------------------
AUXILIARY/J BASIS SET INFORMATION
---------------------------------
There are 4 groups of distinct atoms

 Group   1 Type O   : 10s7p5d2f1g contracted to 10s7p5d2f1g pattern {1111111111/1111111/11111/11/1}
 Group   2 Type N   : 10s7p5d2f1g contracted to 10s7p5d2f1g pattern {1111111111/1111111/11111/11/1}
 Group   3 Type C   : 10s7p5d2f1g contracted to 10s7p5d2f1g pattern {1111111111/1111111/11111/11/1}
 Group   4 Type H   : 4s3p2d1f contracted to 4s3p2d1f pattern {1111/111/11/1}

Atom   0O    basis set group =>   1
Atom   1N    basis set group =>   2
Atom   2C    basis set group =>   3
Atom   3C    basis set group =>   3
Atom   4C    basis set group =>   3
Atom   5C    basis set group =>   3
Atom   6C    basis set group =>   3
Atom   7C    basis set group =>   3
Atom   8C    basis set group =>   3
Atom   9C    basis set group =>   3
Atom  10C    basis set group =>   3
Atom  11N    basis set group =>   2
Atom  12C    basis set group =>   3
Atom  13N    basis set group =>   2
Atom  14C    basis set group =>   3
Atom  15C    basis set group =>   3
Atom  16C    basis set group =>   3
Atom  17C    basis set group =>   3
Atom  18C    basis set group =>   3
Atom  19C    basis set group =>   3
Atom  20C    basis set group =>   3
Atom  21C    basis set group =>   3
Atom  22C    basis set group =>   3
Atom  23C    basis set group =>   3
Atom  24C    basis set group =>   3
Atom  25C    basis set group =>   3
Atom  26H    basis set group =>   4
Atom  27H    basis set group =>   4
Atom  28H    basis set group =>   4
Atom  29H    basis set group =>   4
Atom  30H    basis set group =>   4
Atom  31H    basis set group =>   4
Atom  32H    basis set group =>   4
Atom  33H    basis set group =>   4
Atom  34H    basis set group =>   4
Atom  35H    basis set group =>   4
Atom  36H    basis set group =>   4
Atom  37H    basis set group =>   4
Atom  38H    basis set group =>   4
Atom  39H    basis set group =>   4
Atom  40H    basis set group =>   4
Atom  41H    basis set group =>   4
Atom  42H    basis set group =>   4
Atom  43H    basis set group =>   4
Atom  44H    basis set group =>   4
Atom  45H    basis set group =>   4
Atom  46H    basis set group =>   4
---------------------------------
AUXILIARY/C BASIS SET INFORMATION
---------------------------------
There are 4 groups of distinct atoms

 Group   1 Type O   : 9s7p6d4f2g contracted to 9s7p6d4f2g pattern {111111111/1111111/111111/1111/11}
 Group   2 Type N   : 9s7p6d4f2g contracted to 9s7p6d4f2g pattern {111111111/1111111/111111/1111/11}
 Group   3 Type C   : 9s7p6d4f2g contracted to 9s7p6d4f2g pattern {111111111/1111111/111111/1111/11}
 Group   4 Type H   : 4s3p2d1f contracted to 4s3p2d1f pattern {1111/111/11/1}

Atom   0O    basis set group =>   1
Atom   1N    basis set group =>   2
Atom   2C    basis set group =>   3
Atom   3C    basis set group =>   3
Atom   4C    basis set group =>   3
Atom   5C    basis set group =>   3
Atom   6C    basis set group =>   3
Atom   7C    basis set group =>   3
Atom   8C    basis set group =>   3
Atom   9C    basis set group =>   3
Atom  10C    basis set group =>   3
Atom  11N    basis set group =>   2
Atom  12C    basis set group =>   3
Atom  13N    basis set group =>   2
Atom  14C    basis set group =>   3
Atom  15C    basis set group =>   3
Atom  16C    basis set group =>   3
Atom  17C    basis set group =>   3
Atom  18C    basis set group =>   3
Atom  19C    basis set group =>   3
Atom  20C    basis set group =>   3
Atom  21C    basis set group =>   3
Atom  22C    basis set group =>   3
Atom  23C    basis set group =>   3
Atom  24C    basis set group =>   3
Atom  25C    basis set group =>   3
Atom  26H    basis set group =>   4
Atom  27H    basis set group =>   4
Atom  28H    basis set group =>   4
Atom  29H    basis set group =>   4
Atom  30H    basis set group =>   4
Atom  31H    basis set group =>   4
Atom  32H    basis set group =>   4
Atom  33H    basis set group =>   4
Atom  34H    basis set group =>   4
Atom  35H    basis set group =>   4
Atom  36H    basis set group =>   4
Atom  37H    basis set group =>   4
Atom  38H    basis set group =>   4
Atom  39H    basis set group =>   4
Atom  40H    basis set group =>   4
Atom  41H    basis set group =>   4
Atom  42H    basis set group =>   4
Atom  43H    basis set group =>   4
Atom  44H    basis set group =>   4
Atom  45H    basis set group =>   4
Atom  46H    basis set group =>   4


           ************************************************************
           *        Program running with 4 parallel MPI-processes     *
           *              working on a common directory               *
           ************************************************************
------------------------------------------------------------------------------
                           ORCA GTO INTEGRAL CALCULATION
                           -- RI-GTO INTEGRALS CHOSEN --
------------------------------------------------------------------------------
------------------------------------------------------------------------------
                   ___                                                        
                  /   \      - P O W E R E D   B Y -                         
                 /     \                                                     
                 |  |  |   _    _      __       _____    __    __             
                 |  |  |  | |  | |    /  \     |  _  \  |  |  /  |          
                  \  \/   | |  | |   /    \    | | | |  |  | /  /          
                 / \  \   | |__| |  /  /\  \   | |_| |  |  |/  /          
                |  |  |   |  __  | /  /__\  \  |    /   |      \           
                |  |  |   | |  | | |   __   |  |    \   |  |\   \          
                \     /   | |  | | |  |  |  |  | |\  \  |  | \   \       
                 \___/    |_|  |_| |__|  |__|  |_| \__\ |__|  \__/        
                                                                              
                      - O R C A' S   B I G   F R I E N D -                    
                                      &                                       
                       - I N T E G R A L  F E E D E R -                       
                                                                              
 v1 FN, 2020, v2 2021                                                         
------------------------------------------------------------------------------


Reading SHARK input file optpbed3-wb2plyp-train-5.SHARKINP.tmp ... ok
----------------------
SHARK INTEGRAL PACKAGE
----------------------

Number of atoms                             ...     47
Number of basis functions                   ...   1646
Number of shells                            ...    646
Maximum angular momentum                    ...      3
Integral batch strategy                     ... SHARK/LIBINT Hybrid
RI-J (if used) integral strategy            ... SPLIT-RIJ (Revised 2003 algorithm where possible)
Printlevel                                  ...      1
Contraction scheme used                     ... PARTIAL GENERAL contraction
Coulomb Range Separation                    ... NOT USED
Exchange Range Separation                   ... NOT USED
Finite Nucleus Model                        ... NOT USED
Auxiliary Coulomb fitting basis             ... AVAILABLE
   # of basis functions in Aux-J            ...   2684
   # of shells in Aux-J                     ...    860
   Maximum angular momentum in Aux-J        ...      4
Auxiliary J/K fitting basis                 ... NOT available
Auxiliary Correlation fitting basis         ... AVAILABLE
   # of basis functions in Aux-C            ...   3386
   # of shells in Aux-C                     ...    938
   Maximum angular momentum in Aux-C        ...      4
Auxiliary 'external' fitting basis          ... NOT available
Integral threshold                          ...     2.500000e-11
Primitive cut-off                           ...     2.500000e-12
Primitive pair pre-selection threshold      ...     2.500000e-12

Calculating pre-screening integrals         ... done (  0.4 sec) Dimension = 646
Calculating pre-screening integrals (ORCA)  ... done (  0.8 sec) Dimension = 490
Organizing shell pair data                  ... done (  2.5 sec)
Shell pair information
Total number of shell pairs                 ...    208981
Shell pairs after pre-screening             ...    120497
Total number of primitive shell pairs       ...    274311
Primitive shell pairs kept                  ...    140725
          la=0 lb=0:  27440 shell pairs
          la=1 lb=0:  31296 shell pairs
          la=1 lb=1:   7868 shell pairs
          la=2 lb=0:  20118 shell pairs
          la=2 lb=1:  10282 shell pairs
          la=2 lb=2:   3439 shell pairs
          la=3 lb=0:  10213 shell pairs
          la=3 lb=1:   5346 shell pairs
          la=3 lb=2:   3538 shell pairs
          la=3 lb=3:    957 shell pairs

Calculating one electron integrals          ... done (  0.6 sec)
Calculating RI/J V-Matrix + Cholesky decomp.... done (  1.1 sec)
Calculating RI/C V-Matrix + Cholesky decomp.... done (  1.1 sec)
Calculating Nuclear repulsion               ... done (  0.0 sec) ENN=   2139.002864179701 Eh

SHARK setup successfully completed in   9.9 seconds

Maximum memory used throughout the entire GTOINT-calculation: 196.2 MB


           ************************************************************
           *        Program running with 4 parallel MPI-processes     *
           *              working on a common directory               *
           ************************************************************
-------------------------------------------------------------------------------
                                 ORCA SCF
-------------------------------------------------------------------------------

------------
SCF SETTINGS
------------
Hamiltonian:
 Density Functional     Method          .... DFT(GTOs)
 Exchange Functional    Exchange        .... PBE
   PBE kappa parameter   XKappa         ....  0.804000
   PBE mue parameter    XMuePBE         ....  0.219520
 Correlation Functional Correlation     .... PBE
   PBE beta parameter  CBetaPBE         ....  0.066725
 LDA part of GGA corr.  LDAOpt          .... PW91-LDA
 Gradients option       PostSCFGGA      .... off
 Hybrid DFT is turned on
   Fraction HF Exchange ScalHFX         ....  0.250000
   Scaling of DF-GGA-X  ScalDFX         ....  0.750000
   Scaling of DF-GGA-C  ScalDFC         ....  1.000000
   Scaling of DF-LDA-C  ScalLDAC        ....  1.000000
   Perturbative correction              ....  0.000000
   Density functional embedding theory  .... OFF
   NL short-range parameter             ....  6.900000
 RI-approximation to the Coulomb term is turned on
   Number of AuxJ basis functions       .... 2684
   RIJ-COSX (HFX calculated with COS-X)).... on


General Settings:
 Integral files         IntName         .... optpbed3-wb2plyp-train-5
 Hartree-Fock type      HFTyp           .... RHF
 Total Charge           Charge          ....    0
 Multiplicity           Mult            ....    1
 Number of Electrons    NEL             ....  182
 Basis Dimension        Dim             .... 1490
 Nuclear Repulsion      ENuc            ....   2139.0028641797 Eh

Convergence Acceleration:
 DIIS                   CNVDIIS         .... on
   Start iteration      DIISMaxIt       ....    12
   Startup error        DIISStart       ....  0.200000
   # of expansion vecs  DIISMaxEq       ....     5
   Bias factor          DIISBfac        ....   1.050
   Max. coefficient     DIISMaxC        ....  10.000
 Trust-Rad. Augm. Hess. CNVTRAH         .... auto
   Auto Start mean grad. ratio tolernc. ....  1.125000
   Auto Start start iteration           ....    20
   Auto Start num. interpolation iter.  ....    10
   Max. Number of Micro iterations      ....    16
   Max. Number of Macro iterations      .... Maxiter - #DIIS iter
   Number of Davidson start vectors     ....     2
   Converg. threshold I  (grad. norm)   ....   1.000e-05
   Converg. threshold II (energy diff.) ....   1.000e-08
   Grad. Scal. Fac. for Micro threshold ....   0.100
   Minimum threshold for Micro iter.    ....   0.010
   NR start threshold (gradient norm)   ....   0.001
   Initial trust radius                 ....   0.400
   Minimum AH scaling param. (alpha)    ....   1.000
   Maximum AH scaling param. (alpha)    .... 1000.000
   Orbital update algorithm             .... Taylor
   White noise on init. David. guess    .... on
   Maximum white noise                  ....   0.010
   Quad. conv. algorithm                .... NR
 SOSCF                  CNVSOSCF        .... on
   Start iteration      SOSCFMaxIt      ....   150
   Startup grad/error   SOSCFStart      ....  0.003300
 Level Shifting         CNVShift        .... on
   Level shift para.    LevelShift      ....    0.2500
   Turn off err/grad.   ShiftErr        ....    0.0010
 Zerner damping         CNVZerner       .... off
 Static damping         CNVDamp         .... on
   Fraction old density DampFac         ....    0.7000
   Max. Damping (<1)    DampMax         ....    0.9800
   Min. Damping (>=0)   DampMin         ....    0.0000
   Turn off err/grad.   DampErr         ....    0.1000
 Fernandez-Rico         CNVRico         .... off

SCF Procedure:
 Maximum # iterations   MaxIter         ....   125
 SCF integral mode      SCFMode         .... Direct
   Integral package                     .... SHARK and LIBINT hybrid scheme
 Reset frequency        DirectResetFreq ....    20
 Integral Threshold     Thresh          ....  2.500e-11 Eh
 Primitive CutOff       TCut            ....  2.500e-12 Eh

Convergence Tolerance:
 Convergence Check Mode ConvCheckMode   .... Total+1el-Energy
 Convergence forced     ConvForced      .... 0
 Energy Change          TolE            ....  1.000e-08 Eh
 1-El. energy change                    ....  1.000e-05 Eh
 Orbital Gradient       TolG            ....  1.000e-05
 Orbital Rotation angle TolX            ....  1.000e-05
 DIIS Error             TolErr          ....  5.000e-07


Diagonalization of the overlap matrix:
Smallest eigenvalue                        ... 1.981e-07
Time for diagonalization                   ...    0.750 sec
Threshold for overlap eigenvalues          ... 1.000e-08
Number of eigenvalues below threshold      ... 0
Time for construction of square roots      ...    0.506 sec
Total time needed                          ...    1.272 sec

Time for model grid setup =    1.461 sec

------------------------------
INITIAL GUESS: MODEL POTENTIAL
------------------------------
Loading Hartree-Fock densities                     ... done
Calculating cut-offs                               ... done
Initializing the effective Hamiltonian             ... done
Setting up the integral package (SHARK)            ... done
Starting the Coulomb interaction                   ... done (   6.3 sec)
Reading the grid                                   ... done
Mapping shells                                     ... done
Starting the XC term evaluation                    ... done (   4.9 sec)
  promolecular density results
     # of electrons  =    181.999112238
     EX              =   -146.670227247
     EC              =     -6.132101170
     EX+EC           =   -152.802328417
Transforming the Hamiltonian                       ... done (   0.4 sec)
Diagonalizing the Hamiltonian                      ... done (   0.8 sec)
Back transforming the eigenvectors                 ... done (   0.2 sec)
Now organizing SCF variables                       ... done
                      ------------------
                      INITIAL GUESS DONE (  14.2 sec)
                      ------------------
-------------------
DFT GRID GENERATION
-------------------

General Integration Accuracy     IntAcc      ... 4.388
Radial Grid Type                 RadialGrid  ... OptM3 with GC (2021)
Angular Grid (max. ang.)         AngularGrid ... 4 (Lebedev-302)
Angular grid pruning method      GridPruning ... 4 (adaptive)
Weight generation scheme         WeightScheme... Becke
Basis function cutoff            BFCut       ... 1.0000e-11
Integration weight cutoff        WCut        ... 1.0000e-14
Angular grids for H and He will be reduced by one unit
Partially contracted basis set               ... off
Rotationally invariant grid construction     ... off

Total number of grid points                  ...   227758
Total number of batches                      ...     3586
Average number of points per batch           ...       63
Average number of grid points per atom       ...     4846
Time for grid setup =    4.596 sec

--------------------
COSX GRID GENERATION
--------------------

GRIDX 1
-------
General Integration Accuracy     IntAcc      ... 3.816
Radial Grid Type                 RadialGrid  ... OptM3 with GC (2021)
Angular Grid (max. ang.)         AngularGrid ... 1 (Lebedev-50)
Angular grid pruning method      GridPruning ... 4 (adaptive)
Weight generation scheme         WeightScheme... Becke
Basis function cutoff            BFCut       ... 1.0000e-11
Integration weight cutoff        WCut        ... 1.0000e-14
Angular grids for H and He will be reduced by one unit
Partially contracted basis set               ... on
Rotationally invariant grid construction     ... off

Total number of grid points                  ...    28983
Total number of batches                      ...      478
Average number of points per batch           ...       60
Average number of grid points per atom       ...      617
UseSFitting                                  ... on

GRIDX 2
-------
General Integration Accuracy     IntAcc      ... 4.020
Radial Grid Type                 RadialGrid  ... OptM3 with GC (2021)
Angular Grid (max. ang.)         AngularGrid ... 2 (Lebedev-110)
Angular grid pruning method      GridPruning ... 4 (adaptive)
Weight generation scheme         WeightScheme... Becke
Basis function cutoff            BFCut       ... 1.0000e-11
Integration weight cutoff        WCut        ... 1.0000e-14
Angular grids for H and He will be reduced by one unit
Partially contracted basis set               ... on
Rotationally invariant grid construction     ... off

Total number of grid points                  ...    67388
Total number of batches                      ...     1072
Average number of points per batch           ...       62
Average number of grid points per atom       ...     1434
UseSFitting                                  ... on

GRIDX 3
-------
General Integration Accuracy     IntAcc      ... 4.338
Radial Grid Type                 RadialGrid  ... OptM3 with GC (2021)
Angular Grid (max. ang.)         AngularGrid ... 3 (Lebedev-194)
Angular grid pruning method      GridPruning ... 4 (adaptive)
Weight generation scheme         WeightScheme... Becke
Basis function cutoff            BFCut       ... 1.0000e-11
Integration weight cutoff        WCut        ... 1.0000e-14
Angular grids for H and He will be reduced by one unit
Partially contracted basis set               ... on
Rotationally invariant grid construction     ... off

Total number of grid points                  ...   145273
Total number of batches                      ...     2296
Average number of points per batch           ...       63
Average number of grid points per atom       ...     3091
UseSFitting                                  ... on

Time for X-Grid setup             =   16.251 sec


--------------------
CPCM SOLVATION MODEL
--------------------
CPCM parameters:
  Epsilon                                         ...       8.9300
  Refrac                                          ...       1.4242
  Rsolv                                           ...       1.3000
  Surface type                                    ... GAUSSIAN VDW
[...]
   Time for RI-J (Direct):       33.332
   Time for K (COSX):           131.228
   Time for XC-Integration:      42.198
   Time for LR-CPCM terms:       28.120
   Time for Sigma-Completion:     0.351
   Size of expansion space: 60
   Lowest Energy          :     0.142628160666
   Maximum Energy change  :     0.004759453071 (vector 6)
   Maximum residual norm  :     0.000511469541

                       ****Iteration   10****
   Time for densities:            0.530
   Time for RI-J (Direct):       33.682
   Time for K (COSX):           127.594
   Time for XC-Integration:      40.943
   Time for LR-CPCM terms:       28.038
   Time for Sigma-Completion:     0.351
   Size of expansion space: 70
   Lowest Energy          :     0.142628160515
   Maximum Energy change  :     0.001002790749 (vector 6)
   Maximum residual norm  :     0.000120964298
   Rebuilding the expansion space

                       ****Iteration   11****
   Time for densities:            1.039
   Time for RI-J (Direct):       39.669
   Time for K (COSX):           221.364
   Time for XC-Integration:      79.040
   Time for LR-CPCM terms:       42.601
   Time for Sigma-Completion:     0.714
   Size of expansion space: 20
   Lowest Energy          :     0.142628150612
   Maximum Energy change  :     0.000207995049 (vector 9)
   Maximum residual norm  :     0.000041436712

                       ****Iteration   12****
   Time for densities:            0.530
   Time for RI-J (Direct):       33.633
   Time for K (COSX):           130.704
   Time for XC-Integration:      43.032
   Time for LR-CPCM terms:       28.648
   Time for Sigma-Completion:     0.378
   Size of expansion space: 30
   Lowest Energy          :     0.142628150608
   Maximum Energy change  :     0.000090642767 (vector 9)
   Maximum residual norm  :     0.000016119348

                       ****Iteration   13****
   Time for densities:            0.532
   Time for RI-J (Direct):       33.455
   Time for K (COSX):           130.783
   Time for XC-Integration:      43.907
   Time for LR-CPCM terms:       28.446
   Time for Sigma-Completion:     0.389
   Size of expansion space: 40
   Lowest Energy          :     0.142628150608
   Maximum Energy change  :     0.000041022597 (vector 9)
   Maximum residual norm  :     0.000010975397

                       ****Iteration   14****
   Time for densities:            0.531
   Time for RI-J (Direct):       33.574
   Time for K (COSX):           130.256
   Time for XC-Integration:      43.072
   Time for LR-CPCM terms:       28.313
   Time for Sigma-Completion:     0.392
   Size of expansion space: 50
   Lowest Energy          :     0.142628150608
   Maximum Energy change  :     0.000024355380 (vector 9)
   Maximum residual norm  :     0.000004341437

                       ****Iteration   15****
   Time for densities:            0.477
   Time for RI-J (Direct):       32.703
   Time for K (COSX):           116.895
   Time for XC-Integration:      38.582
   Time for LR-CPCM terms:       27.022
   Time for Sigma-Completion:     0.355
   Size of expansion space: 59
   Lowest Energy          :     0.142628150608
   Maximum Energy change  :     0.000013534585 (vector 9)
   Maximum residual norm  :     0.000003263649

                       ****Iteration   16****
   Time for densities:            0.478
   Time for RI-J (Direct):       33.199
   Time for K (COSX):           121.062
   Time for XC-Integration:      39.210
   Time for LR-CPCM terms:       27.074
   Time for Sigma-Completion:     0.342
   Size of expansion space: 68
   Lowest Energy          :     0.142628150608
   Maximum Energy change  :     0.000010756573 (vector 9)
   Maximum residual norm  :     0.000003117253
   Rebuilding the expansion space

                       ****Iteration   17****
   Time for densities:            1.000
   Time for RI-J (Direct):       42.806
   Time for K (COSX):           217.805
   Time for XC-Integration:      74.621
   Time for LR-CPCM terms:       41.588
   Time for Sigma-Completion:     0.683
   Size of expansion space: 19
   Lowest Energy          :     0.142628150530
   Maximum Energy change  :     0.000005387456 (vector 9)
   Maximum residual norm  :     0.000001274001

                       ****Iteration   18****
   Time for densities:            0.548
   Time for RI-J (Direct):       33.891
   Time for K (COSX):           130.612
   Time for XC-Integration:      44.589
   Time for LR-CPCM terms:       28.171
   Time for Sigma-Completion:     0.370
   Size of expansion space: 29
   Lowest Energy          :     0.142628150529
   Maximum Energy change  :     0.000003653212 (vector 9)
   Maximum residual norm  :     0.000000711699

      *** CONVERGENCE OF RESIDUAL NORM REACHED ***

Storing the converged CI vectors               ... optpbed3-wb2plyp-train-5_job2.cis1

                 *** DAVIDSON DONE ***

Total time for solving the CIS problem:  5200.369sec

------------------
DOUBLES CORRECTION (Double precision version)
------------------

The (D) correction will be scaled by  0.2700
Doing v(i,a)*T(i,a) terms (RI)                    ... ok
Doing u(i,j,a,b) terms for state   0              ... ok
Doing u(i,j,a,b) terms for state   1              ... ok
Doing u(i,j,a,b) terms for state   2              ... ok
Doing u(i,j,a,b) terms for state   3              ... ok
Doing u(i,j,a,b) terms for state   4              ... ok
Doing u(i,j,a,b) terms for state   5              ... ok
Doing u(i,j,a,b) terms for state   6              ... ok
Doing u(i,j,a,b) terms for state   7              ... ok
Doing u(i,j,a,b) terms for state   8              ... ok
Doing u(i,j,a,b) terms for state   9              ... ok

Contributions to the (D) correction(s) (in eV)

STATE  Final   Init.   Total   v(ext)   v(int)  v(3)    u
       omega   omega     (D)                             
-----------------------------------------------------------------------------
   0   3.464   3.881  -0.418   0.496   0.891  -0.046  -1.759
   1   4.268   4.720  -0.452   0.533   0.887  -0.049  -1.823
   2   4.391   4.795  -0.405   0.521   0.855  -0.047  -1.734
   3   4.981   5.309  -0.328   0.102   0.887  -0.008  -1.310
   4   5.024   5.330  -0.306   0.428   0.790  -0.025  -1.499
   5   5.048   5.375  -0.328   0.328   0.835  -0.029  -1.462
   6   4.448   5.433  -0.985   0.589   0.729  -0.013  -2.289
   7   5.429   5.688  -0.259   0.044   0.871  -0.003  -1.171
   8   5.523   5.822  -0.299   0.325   0.846  -0.040  -1.430
   9   5.773   6.050  -0.276   0.220   0.861  -0.022  -1.335

(D)-timings
 V(i,a)*T(i,a) terms           ...  2400.290 sec
 U(i,j,a,b) 3-internal         ...    50.682 sec
 U(i,j,a,b) 3-external         ...  1106.893 sec
 U(i,j,a,b) pair terms         ...  1608.227 sec
 Total measured time           ... 12114.470 sec

 Time for (ab|v) I/O           ...   247.370 sec


------------------------------------
TD-DFT/TDA EXCITED STATES (SINGLETS)
------------------------------------

the weight of the individual excitations are printed if larger than 1.0e-02

STATE  1:  E=   0.127282 au      3.464 eV    27935.2 cm**-1 <S**2> =   0.000000
    89a ->  91a  :     0.110582 (c= -0.33253810)
    90a ->  91a  :     0.755682 (c=  0.86929991)
    90a ->  98a  :     0.016956 (c= -0.13021600)

STATE  2:  E=   0.156859 au      4.268 eV    34426.5 cm**-1 <S**2> =   0.000000
    88a ->  91a  :     0.050778 (c= -0.22533982)
    89a ->  91a  :     0.136188 (c= -0.36903601)
    90a ->  94a  :     0.015001 (c= -0.12247831)
    90a ->  95a  :     0.048490 (c= -0.22020532)
    90a ->  96a  :     0.066581 (c= -0.25803240)
    90a ->  98a  :     0.336039 (c=  0.57968886)
    90a ->  99a  :     0.149219 (c= -0.38628918)
    90a -> 117a  :     0.016996 (c= -0.13036878)

STATE  3:  E=   0.161362 au      4.391 eV    35414.9 cm**-1 <S**2> =   0.000000
    88a ->  91a  :     0.123970 (c= -0.35209339)
    89a ->  91a  :     0.459071 (c= -0.67754799)
    89a ->  98a  :     0.018584 (c= -0.13632464)
    90a ->  91a  :     0.067191 (c= -0.25921177)
    90a ->  96a  :     0.027156 (c=  0.16478944)
    90a ->  98a  :     0.080546 (c= -0.28380580)
    90a ->  99a  :     0.027452 (c=  0.16568543)
    90a -> 104a  :     0.010440 (c=  0.10217668)
    90a -> 109a  :     0.010307 (c=  0.10152514)

STATE  4:  E=   0.183048 au      4.981 eV    40174.4 cm**-1 <S**2> =   0.000000
    88a ->  94a  :     0.015570 (c=  0.12478161)
    88a -> 104a  :     0.010160 (c=  0.10079718)
    89a -> 104a  :     0.027824 (c= -0.16680624)
    89a -> 107a  :     0.012954 (c= -0.11381369)
    90a ->  92a  :     0.194108 (c=  0.44057638)
    90a ->  94a  :     0.133825 (c=  0.36582068)
    90a ->  96a  :     0.023637 (c= -0.15374480)
    90a ->  97a  :     0.089999 (c= -0.29999784)
    90a ->  98a  :     0.042540 (c=  0.20625205)
    90a ->  99a  :     0.113328 (c=  0.33664280)
    90a -> 100a  :     0.015930 (c=  0.12621525)
    90a -> 102a  :     0.049732 (c= -0.22300717)
    90a -> 104a  :     0.012658 (c= -0.11250970)
    90a -> 105a  :     0.016235 (c= -0.12741535)
    90a -> 106a  :     0.017232 (c= -0.13127158)

STATE  5:  E=   0.184629 au      5.024 eV    40521.5 cm**-1 <S**2> =   0.000000
    84a -> 106a  :     0.024867 (c= -0.15769159)
    86a ->  91a  :     0.135903 (c=  0.36865032)
    86a -> 109a  :     0.011394 (c=  0.10674103)
    87a ->  91a  :     0.306716 (c=  0.55381990)
    87a -> 109a  :     0.024191 (c=  0.15553490)
    87a -> 113a  :     0.012602 (c=  0.11225708)
    87a -> 120a  :     0.014134 (c= -0.11888657)
    88a -> 106a  :     0.024980 (c= -0.15805011)
    89a -> 104a  :     0.015566 (c=  0.12476530)
    89a -> 105a  :     0.027058 (c=  0.16449240)
    89a -> 106a  :     0.128910 (c= -0.35904070)
    90a -> 105a  :     0.015195 (c= -0.12326859)
    90a -> 106a  :     0.055165 (c=  0.23487234)

STATE  6:  E=   0.185500 au      5.048 eV    40712.6 cm**-1 <S**2> =   0.000000
    86a ->  96a  :     0.010873 (c= -0.10427593)
    86a ->  98a  :     0.027912 (c=  0.16706976)
    86a -> 117a  :     0.012764 (c=  0.11297801)
    87a ->  98a  :     0.012812 (c= -0.11319077)
    88a ->  91a  :     0.012414 (c=  0.11141835)
    88a -> 104a  :     0.042927 (c= -0.20718936)
    88a -> 107a  :     0.018097 (c= -0.13452659)
    89a -> 103a  :     0.012159 (c= -0.11026673)
    89a -> 104a  :     0.086748 (c=  0.29453044)
    89a -> 106a  :     0.016124 (c=  0.12697847)
    89a -> 107a  :     0.040292 (c=  0.20072967)
    89a -> 108a  :     0.014457 (c=  0.12023870)
    90a ->  92a  :     0.031972 (c=  0.17880828)
    90a ->  94a  :     0.031514 (c=  0.17752148)
    90a ->  96a  :     0.016661 (c= -0.12907617)
    90a ->  97a  :     0.017214 (c= -0.13120062)
    90a ->  98a  :     0.010708 (c=  0.10347807)
    90a -> 103a  :     0.017162 (c= -0.13100527)
    90a -> 104a  :     0.166866 (c=  0.40849201)
    90a -> 106a  :     0.015594 (c=  0.12487709)
    90a -> 107a  :     0.066639 (c=  0.25814514)
    90a -> 108a  :     0.027047 (c=  0.16445931)

STATE  7:  E=   0.163447 au      4.448 eV    35872.5 cm**-1 <S**2> =   0.000000
    83a ->  91a  :     0.010014 (c= -0.10007050)
    84a ->  91a  :     0.012280 (c=  0.11081675)
    85a ->  91a  :     0.737668 (c=  0.85887594)
    85a ->  98a  :     0.013282 (c=  0.11524705)
    85a -> 104a  :     0.012064 (c= -0.10983488)
    85a -> 113a  :     0.017058 (c= -0.13060524)
    85a -> 115a  :     0.016619 (c=  0.12891643)
    85a -> 117a  :     0.014472 (c= -0.12030048)
    85a -> 120a  :     0.029910 (c=  0.17294439)

STATE  8:  E=   0.199514 au      5.429 eV    43788.2 cm**-1 <S**2> =   0.000000
    88a ->  92a  :     0.028172 (c= -0.16784489)
    88a ->  97a  :     0.019116 (c=  0.13826133)
    89a ->  92a  :     0.089090 (c=  0.29847881)
    89a ->  97a  :     0.011406 (c= -0.10679889)
    90a ->  92a  :     0.218928 (c=  0.46789707)
    90a ->  94a  :     0.212095 (c= -0.46053799)
    90a ->  95a  :     0.012851 (c= -0.11336260)
    90a ->  97a  :     0.046647 (c=  0.21597868)
    90a ->  99a  :     0.025018 (c=  0.15817033)
    90a -> 101a  :     0.014174 (c=  0.11905622)
    90a -> 102a  :     0.038280 (c= -0.19565203)
    90a -> 105a  :     0.036868 (c=  0.19201144)
    90a -> 112a  :     0.013700 (c= -0.11704819)

STATE  9:  E=   0.202965 au      5.523 eV    44545.6 cm**-1 <S**2> =   0.000000
    84a ->  91a  :     0.018468 (c= -0.13589620)
    86a -> 104a  :     0.023067 (c= -0.15187838)
    86a -> 107a  :     0.010756 (c= -0.10371201)
    87a -> 104a  :     0.017116 (c=  0.13082949)
    88a ->  91a  :     0.032618 (c= -0.18060416)
    88a ->  98a  :     0.049247 (c= -0.22191631)
    88a ->  99a  :     0.018781 (c=  0.13704452)
    89a ->  96a  :     0.049551 (c= -0.22259974)
    89a ->  98a  :     0.073508 (c=  0.27112424)
    89a ->  99a  :     0.032335 (c= -0.17981923)
    90a ->  92a  :     0.011281 (c= -0.10621015)
    90a ->  96a  :     0.142617 (c= -0.37764716)
    90a ->  97a  :     0.020161 (c=  0.14198808)
    90a ->  98a  :     0.026032 (c= -0.16134334)
    90a -> 101a  :     0.032736 (c= -0.18093207)
    90a -> 111a  :     0.023760 (c=  0.15414422)
    90a -> 113a  :     0.019603 (c= -0.14001086)
    90a -> 117a  :     0.055107 (c=  0.23474803)
    90a -> 120a  :     0.015146 (c= -0.12307059)

STATE 10:  E=   0.212158 au      5.773 eV    46563.3 cm**-1 <S**2> =   0.000000
    84a ->  91a  :     0.091386 (c=  0.30230172)
    86a -> 106a  :     0.010860 (c=  0.10421220)
    87a -> 106a  :     0.014529 (c=  0.12053727)
    88a ->  91a  :     0.015474 (c= -0.12439537)
    88a ->  96a  :     0.010028 (c= -0.10013782)
    88a ->  98a  :     0.015178 (c=  0.12320056)
    89a ->  98a  :     0.025695 (c= -0.16029649)
    89a ->  99a  :     0.014785 (c=  0.12159156)
    89a -> 104a  :     0.026275 (c=  0.16209591)
    90a ->  96a  :     0.294371 (c= -0.54255968)
    90a ->  97a  :     0.046309 (c=  0.21519613)
    90a ->  98a  :     0.040593 (c= -0.20147755)
    90a ->  99a  :     0.014356 (c=  0.11981611)
    90a -> 101a  :     0.022879 (c= -0.15125898)
    90a -> 104a  :     0.025277 (c= -0.15898767)
    90a -> 109a  :     0.022766 (c=  0.15088500)
    90a -> 117a  :     0.023607 (c= -0.15364474)
    90a -> 120a  :     0.012966 (c=  0.11387033)


-----------------------------
TD-DFT/TDA-EXCITATION SPECTRA
-----------------------------

Center of mass = (  0.3375,  0.1013,  0.0178)
Calculating the Dipole integrals                  ... done
Transforming integrals                            ... done
Calculating the Linear Momentum integrals         ... done
Transforming integrals                            ... done
Calculating angular momentum integrals            ... done
Transforming integrals                            ... done

-----------------------------------------------------------------------------
         ABSORPTION SPECTRUM VIA TRANSITION ELECTRIC DIPOLE MOMENTS
-----------------------------------------------------------------------------
State   Energy    Wavelength  fosc         T2        TX        TY        TZ  
        (cm-1)      (nm)                 (au**2)    (au)      (au)      (au) 
-----------------------------------------------------------------------------
   1   27935.2    358.0   0.736148801   8.67540   2.33471   1.79444  -0.06709
   2   34426.5    290.5   0.532421069   5.09141  -0.01072   2.25184  -0.14317
   3   35414.9    282.4   0.612956599   5.69796   2.16431  -1.00401   0.07540
   4   40174.4    248.9   0.035382340   0.28994   0.33440   0.03272   0.42077
   5   40521.5    246.8   0.015300105   0.12430   0.29494  -0.18708   0.04809
   6   40712.6    245.6   0.055726625   0.45062  -0.64741   0.17140   0.04576
   7   35872.5    278.8   0.000761042   0.00698   0.04004  -0.01912   0.07082
   8   43788.2    228.4   0.006780487   0.05098   0.08452   0.05969  -0.20068
   9   44545.6    224.5   0.069609011   0.51444   0.47391   0.53816   0.01526
  10   46563.3    214.8   0.068308125   0.48295   0.68563  -0.11327  -0.00561

-----------------------------------------------------------------------------
         ABSORPTION SPECTRUM VIA TRANSITION VELOCITY DIPOLE MOMENTS
-----------------------------------------------------------------------------
State   Energy    Wavelength   fosc        P2         PX        PY        PZ  
        (cm-1)      (nm)                 (au**2)     (au)      (au)      (au) 
-----------------------------------------------------------------------------
   1   27935.2    358.0   0.526914911   0.10060  -0.28818  -0.13248   0.00159
   2   34426.5    290.5   0.357970620   0.08423  -0.08157  -0.27827   0.01185
   3   35414.9    282.4   0.386643530   0.09358  -0.29395   0.08426  -0.00887
   4   40174.4    248.9   0.011815941   0.00324  -0.01970  -0.00633  -0.05307
   5   40521.5    246.8   0.007222957   0.00200  -0.04388   0.00587  -0.00639
   6   40712.6    245.6   0.011827186   0.00329   0.04288  -0.03098  -0.02221
   7   35872.5    278.8   0.000202478   0.00005  -0.00107   0.00245   0.00652
   8   43788.2    228.4   0.011511785   0.00345  -0.00884  -0.01345   0.05645
   9   44545.6    224.5   0.051630435   0.01572  -0.02673  -0.12249   0.00089
  10   46563.3    214.8   0.079088195   0.02517  -0.14966   0.05265   0.00017

-------------------------------------------------------------------
                             CD SPECTRUM
-------------------------------------------------------------------
State  Energy     Wavelength     R         MX        MY        MZ   
       (cm-1)       (nm)     (1e40*cgs)   (au)      (au)      (au)  
-------------------------------------------------------------------
   1   27935.2    358.0    -10.55441  -0.01640   0.02402   0.40532
   2   34426.5    290.5     35.62850   0.01705   0.00303  -0.48148
   3   35414.9    282.4    -17.79651  -0.03503   0.01676   0.72805
   4   40174.4    248.9    -57.61716  -0.13811  -0.14426  -0.16947
   5   40521.5    246.8      0.26896  -0.01432  -0.01498   0.04141
   6   40712.6    245.6     44.28593  -0.14730  -0.08336   0.28106
   7   35872.5    278.8      6.17985   0.22785  -0.10819   0.02704
   8   43788.2    228.4      7.60086   0.09210   0.04353  -0.02861
   9   44545.6    224.5      5.64058   0.02463   0.00608  -0.19532
  10   46563.3    214.8     -2.07711   0.00427   0.03320   0.63779

-------------------------------------------------------------------
         CD SPECTRUM VIA TRANSITION VELOCITY DIPOLE MOMENTS        
-------------------------------------------------------------------
State  Energy     Wavelength     R         MX        MY        MZ   
       (cm-1)       (nm)     (1e40*cgs)   (au)      (au)      (au)  
-------------------------------------------------------------------
   1   27935.2    358.0      8.10847  -0.01640   0.02402   0.40532
   2   34426.5    290.5    -23.86992   0.01705   0.00303  -0.48148
   3   35414.9    282.4     15.34876  -0.03503   0.01676   0.72805
   4   40174.4    248.9     32.52305  -0.13811  -0.14426  -0.16947
   5   40521.5    246.8      0.70390  -0.01432  -0.01498   0.04141
   6   40712.6    245.6    -25.34956  -0.14730  -0.08336   0.28106
   7   35872.5    278.8     -0.95572   0.22785  -0.10819   0.02704
   8   43788.2    228.4     -7.12306   0.09210   0.04353  -0.02861
   9   44545.6    224.5     -3.66316   0.02463   0.00608  -0.19532
  10   46563.3    214.8      2.69973   0.00427   0.03320   0.63779

Total run time:    17329.692 sec

           *** ORCA-CIS/TD-DFT FINISHED WITHOUT ERROR ***

Maximum memory used throughout the entire CIS-calculation: 3229.5 MB

-----------------------
CIS/TD-DFT TOTAL ENERGY
-----------------------

    E(SCF)  =  -1087.414124330 Eh
    DE(CIS) =      0.127282171 Eh (Root  1)
    ----------------------------- ---------
    E(tot)  =  -1087.286842159 Eh

  Warning: (DFTVDWD): Non-parameterized functional used for dispersion correction ! 

  Warning: (D3BJ): Non-parameterized functional used for dispersion correction !

Please define all necessary parameters (s6, s8, a1, and a2) in the %method block!
[file orca_tools/Tool-Misc/qcdftvdw.cpp, line 36127]: ERROR in DFT dispersion correction!

