
                                 *****************
                                 * O   R   C   A *
                                 *****************

                                            #,                                       
                                            ###                                      
                                            ####                                     
                                            #####                                    
                                            ######                                   
                                           ########,                                 
                                     ,,################,,,,,                         
                               ,,#################################,,                 
                          ,,##########################################,,             
                       ,#########################################, ''#####,          
                    ,#############################################,,   '####,        
                  ,##################################################,,,,####,       
                ,###########''''           ''''###############################       
              ,#####''   ,,,,##########,,,,          '''####'''          '####       
            ,##' ,,,,###########################,,,                        '##       
           ' ,,###''''                  '''############,,,                           
         ,,##''                                '''############,,,,        ,,,,,,###''
      ,#''                                            '''#######################'''  
     '                                                          ''''####''''         
             ,#######,   #######,   ,#######,      ##                                
            ,#'     '#,  ##    ##  ,#'     '#,    #''#        ######   ,####,        
            ##       ##  ##   ,#'  ##            #'  '#       #        #'  '#        
            ##       ##  #######   ##           ,######,      #####,   #    #        
            '#,     ,#'  ##    ##  '#,     ,#' ,#      #,         ##   #,  ,#        
             '#######'   ##     ##  '#######'  #'      '#     #####' # '####'        



                  #######################################################
                  #                        -***-                        #
                  #          Department of theory and spectroscopy      #
                  #    Directorship and core code : Frank Neese         #
                  #        Max Planck Institute fuer Kohlenforschung    #
                  #                Kaiser Wilhelm Platz 1               #
                  #                 D-45470 Muelheim/Ruhr               #
                  #                      Germany                        #
                  #                                                     #
                  #                  All rights reserved                #
                  #                        -***-                        #
                  #######################################################


                         Program Version 5.0.2 -  RELEASE  -


 With contributions from (in alphabetic order):
   Daniel Aravena         : Magnetic Suceptibility
   Michael Atanasov       : Ab Initio Ligand Field Theory (pilot matlab implementation)
   Alexander A. Auer      : GIAO ZORA, VPT2 properties, NMR spectrum
   Ute Becker             : Parallelization
   Giovanni Bistoni       : ED, misc. LED, open-shell LED, HFLD
   Martin Brehm           : Molecular dynamics
   Dmytro Bykov           : SCF Hessian
   Vijay G. Chilkuri      : MRCI spin determinant printing, contributions to CSF-ICE
   Dipayan Datta          : RHF DLPNO-CCSD density
   Achintya Kumar Dutta   : EOM-CC, STEOM-CC
   Dmitry Ganyushin       : Spin-Orbit,Spin-Spin,Magnetic field MRCI
   Miquel Garcia          : C-PCM and meta-GGA Hessian, CC/C-PCM, Gaussian charge scheme
   Yang Guo               : DLPNO-NEVPT2, F12-NEVPT2, CIM, IAO-localization
   Andreas Hansen         : Spin unrestricted coupled pair/coupled cluster methods
   Benjamin Helmich-Paris : MC-RPA, TRAH-SCF, COSX integrals
   Lee Huntington         : MR-EOM, pCC
   Robert Izsak           : Overlap fitted RIJCOSX, COSX-SCS-MP3, EOM
   Marcus Kettner         : VPT2
   Christian Kollmar      : KDIIS, OOCD, Brueckner-CCSD(T), CCSD density, CASPT2, CASPT2-K
   Simone Kossmann        : Meta GGA functionals, TD-DFT gradient, OOMP2, MP2 Hessian
   Martin Krupicka        : Initial AUTO-CI
   Lucas Lang             : DCDCAS
   Marvin Lechner         : AUTO-CI (C++ implementation), FIC-MRCC
   Dagmar Lenk            : GEPOL surface, SMD
   Dimitrios Liakos       : Extrapolation schemes; Compound Job, initial MDCI parallelization
   Dimitrios Manganas     : Further ROCIS development; embedding schemes
   Dimitrios Pantazis     : SARC Basis sets
   Anastasios Papadopoulos: AUTO-CI, single reference methods and gradients
   Taras Petrenko         : DFT Hessian,TD-DFT gradient, ASA, ECA, R-Raman, ABS, FL, XAS/XES, NRVS
   Peter Pinski           : DLPNO-MP2, DLPNO-MP2 Gradient
   Christoph Reimann      : Effective Core Potentials
   Marius Retegan         : Local ZFS, SOC
   Christoph Riplinger    : Optimizer, TS searches, QM/MM, DLPNO-CCSD(T), (RO)-DLPNO pert. Triples
   Tobias Risthaus        : Range-separated hybrids, TD-DFT gradient, RPA, STAB
   Michael Roemelt        : Original ROCIS implementation
   Masaaki Saitow         : Open-shell DLPNO-CCSD energy and density
   Barbara Sandhoefer     : DKH picture change effects
   Avijit Sen             : IP-ROCIS
   Kantharuban Sivalingam : CASSCF convergence, NEVPT2, FIC-MRCI
   Bernardo de Souza      : ESD, SOC TD-DFT
   Georgi Stoychev        : AutoAux, RI-MP2 NMR, DLPNO-MP2 response
   Willem Van den Heuvel  : Paramagnetic NMR
   Boris Wezisla          : Elementary symmetry handling
   Frank Wennmohs         : Technical directorship


 We gratefully acknowledge several colleagues who have allowed us to
 interface, adapt or use parts of their codes:
   Stefan Grimme, W. Hujo, H. Kruse, P. Pracht,  : VdW corrections, initial TS optimization,
                  C. Bannwarth, S. Ehlert          DFT functionals, gCP, sTDA/sTD-DF
   Ed Valeev, F. Pavosevic, A. Kumar             : LibInt (2-el integral package), F12 methods
   Garnet Chan, S. Sharma, J. Yang, R. Olivares  : DMRG
   Ulf Ekstrom                                   : XCFun DFT Library
   Mihaly Kallay                                 : mrcc  (arbitrary order and MRCC methods)
   Jiri Pittner, Ondrej Demel                    : Mk-CCSD
   Frank Weinhold                                : gennbo (NPA and NBO analysis)
   Christopher J. Cramer and Donald G. Truhlar   : smd solvation model
   Lars Goerigk                                  : TD-DFT with DH, B97 family of functionals
   V. Asgeirsson, H. Jonsson                     : NEB implementation
   FAccTs GmbH                                   : IRC, NEB, NEB-TS, DLPNO-Multilevel, CI-OPT
                                                   MM, QMMM, 2- and 3-layer-ONIOM, Crystal-QMMM,
                                                   LR-CPCM, SF, NACMEs, symmetry and pop. for TD-DFT,
                                                   nearIR, NL-DFT gradient (VV10), updates on ESD,
                                                   ML-optimized integration grids
   S Lehtola, MJT Oliveira, MAL Marques          : LibXC Library
   Liviu Ungur et al                             : ANISO software


 Your calculation uses the libint2 library for the computation of 2-el integrals
 For citations please refer to: http://libint.valeyev.net

 Your ORCA version has been built with support for libXC version: 5.1.0
 For citations please refer to: https://tddft.org/programs/libxc/

 This ORCA versions uses:
   CBLAS   interface :  Fast vector & matrix operations
   LAPACKE interface :  Fast linear algebra routines
   SCALAPACK package :  Parallel linear algebra routines
   Shared memory     :  Shared parallel matrices
   BLAS/LAPACK       :  OpenBLAS 0.3.15  USE64BITINT DYNAMIC_ARCH NO_AFFINITY Sandybridge SINGLE_THREADED
        Core in use  :  Sandybridge
   Copyright (c) 2011-2014, The OpenBLAS Project


Your calculation utilizes the SMD solvation module
Please cite in your paper:
A.V. Marenich, C.J. Cramer, D.G. Truhlar J. Phys. Chem. B, 113, (2009), 6378 

================================================================================

----- Orbital basis set information -----
Your calculation utilizes the basis: aug-cc-pVTZ 
    H, B-Ne : Obtained from the ccRepo (grant-hill.group.shef.ac.uk/ccrepo) Feb. 2017
              R. A. Kendall, T. H. Dunning, Jr., R. J. Harrison, J. Chem. Phys. 96, 6796 (1992)
         He : Obtained from the ccRepo (grant-hill.group.shef.ac.uk/ccrepo) Feb. 2017
              D. E. Woon, T. H. Dunning, Jr., J. Chem. Phys. 100, 2975 (1994)
  Li-Be, Na : Obtained from the ccRepo (grant-hill.group.shef.ac.uk/ccrepo) Feb. 2017
              B. P. Prascher, D. E. Woon, K. A. Peterson, T. H. Dunning, Jr., A. K. Wilson, Theor. Chem. Acc. 128, 69 (2011)
         Mg : Obtained from the Peterson Research Group Website (tyr0.chem.wsu.edu/~kipeters) Feb. 2017
              B. P. Prascher, D. E. Woon, K. A. Peterson, T. H. Dunning, Jr., A. K. Wilson, Theor. Chem. Acc. 128, 69 (2011)
      Al-Ar : Obtained from the ccRepo (grant-hill.group.shef.ac.uk/ccrepo) Feb. 2017
              D. E. Woon, T. H. Dunning, Jr., J. Chem. Phys. 98, 1358 (1993)
      Sc-Zn : Obtained from the ccRepo (grant-hill.group.shef.ac.uk/ccrepo) Feb. 2017
              N. B. Balabanov, K. A. Peterson, J. Chem. Phys. 123, 064107 (2005)
              N. B. Balabanov, K. A. Peterson, J. Chem. Phys. 125, 074110 (2006)
      Ga-Kr : Obtained from the ccRepo (grant-hill.group.shef.ac.uk/ccrepo) Feb. 2017
              A. K. Wilson, D. E. Woon, K. A. Peterson, T. H. Dunning, Jr., J. Chem. Phys. 110, 7667 (1999)
     Ag, Au : Obtained from the Peterson Research Group Website (tyr0.chem.wsu.edu/~kipeters) Feb. 2017
              K. A. Peterson, C. Puzzarini, Theor. Chem. Acc. 114, 283 (2005)

The basis set includes element-specific modifications.

Your calculation utilizes the basis: cc-pVTZ 
       H, B-Ne : Obtained from the ccRepo (grant-hill.group.shef.ac.uk/ccrepo) Feb. 2017
                 T. H. Dunning, Jr., J. Chem. Phys. 90, 1007 (1989)
            He : Obtained from the ccRepo (grant-hill.group.shef.ac.uk/ccrepo) Feb. 2017
                 D. E. Woon, T. H. Dunning, Jr., J. Chem. Phys. 100, 2975 (1994)
  Li-Be, Na-Mg : Obtained from the ccRepo (grant-hill.group.shef.ac.uk/ccrepo) Feb. 2017
                 B. P. Prascher, D. E. Woon, K. A. Peterson, T. H. Dunning, Jr., A. K. Wilson, Theor. Chem. Acc. 128, 69 (2011)
         Al-Ar : Obtained from the ccRepo (grant-hill.group.shef.ac.uk/ccrepo) Feb. 2017
                 D. E. Woon, T. H. Dunning, Jr., J. Chem. Phys. 98, 1358 (1993)
            Ca : Obtained from the Peterson Research Group Website (tyr0.chem.wsu.edu/~kipeters) Feb. 2017
                 J. Koput, K. A. Peterson, J. Phys. Chem. 106, 9595 (2002)
         Sc-Zn : Obtained from the ccRepo (grant-hill.group.shef.ac.uk/ccrepo) Feb. 2017
                 N. B. Balabanov, K. A. Peterson, J. Chem. Phys. 123, 064107 (2005)
                 N. B. Balabanov, K. A. Peterson, J. Chem. Phys. 125, 074110 (2006)
         Ga-Kr : Obtained from the ccRepo (grant-hill.group.shef.ac.uk/ccrepo) Feb. 2017
                 A. K. Wilson, D. E. Woon, K. A. Peterson, T. H. Dunning, Jr., J. Chem. Phys. 110, 7667 (1999)
             Y : Obtained from the ccRepo (grant-hill.group.shef.ac.uk/ccrepo) Feb. 2017
                 K. A. Peterson, D. Figgen, M. Dolg, H. Stoll, J. Chem. Phys. 126, 124101 (2007)
        Ag, Au : Obtained from the Peterson Research Group Website (tyr0.chem.wsu.edu/~kipeters) Feb. 2017
                 K. A. Peterson, C. Puzzarini, Theor. Chem. Acc. 114, 283 (2005)

----- AuxJ basis set information -----
Your calculation utilizes the auxiliary basis: aug-cc-pVTZ/JK 
  H, B-F, Al-Cl, Ga-Br : Obtained from the TURBOMOLE 7.0 basis set library

The basis set includes element-specific modifications.

Your calculation utilizes the auxiliary basis: cc-pVTZ/JK 
  H, B-F, Al-Cl, Ga-Br : Obtained from the TURBOMOLE 7.0 basis set library

----- AuxC basis set information -----
Your calculation utilizes the auxiliary basis: aug-cc-pVTZ/C 
  H-He, B-F, Al-Ar, Ga-Kr : Obtained from the EMSL Basis Set Exchange (bse.pnl.gov) Feb. 2017
                            F. Weigend, A. Kohn, C. Hattig, J. Chem. Phys. 116, 3175 (2002)
                   Be, Mg : Obtained from the TURBOMOLE 7.0 basis set library
                            C. Haettig, Phys. Chem. Chem. Phys. 7, 59 (2005)
                       Ne : Obtained from the EMSL Basis Set Exchange (bse.pnl.gov) Feb. 2017
                            C. Haettig, Phys. Chem. Chem. Phys. 7, 59 (2005)
                            F. Weigend, A. Kohn, C. Hattig, J. Chem. Phys. 116, 3175 (2002)
                    Sc-Zn : Obtained from the EMSL Basis Set Exchange (bse.pnl.gov) Feb. 2017
                            J. G. Hill, J. A. Platts, J. Chem. Phys. 128, 044104 (2008)

The basis set includes element-specific modifications.

Your calculation utilizes the auxiliary basis: cc-pVTZ/C 
  Obtained from the EMSL Basis Set Exchange (bse.pnl.gov) Feb. 2017
  H-He, B-F, Al-Ar, Ga-Kr : F. Weigend, A. Kohn, C. Hattig, J. Chem. Phys. 116, 3175 (2002)
             Li-Be, Na-Mg : C. Haettig, Phys. Chem. Chem. Phys. 7, 59 (2005)
                       Ne : C. Haettig, Phys. Chem. Chem. Phys. 7, 59 (2005)
                            F. Weigend, A. Kohn, C. Hattig, J. Chem. Phys. 116, 3175 (2002)
                    Sc-Zn : J. G. Hill, J. A. Platts, J. Chem. Phys. 128, 044104 (2008)

================================================================================
                                        WARNINGS
                       Please study these warnings very carefully!
================================================================================


WARNING: Geometry Optimization
  ===> : Switching off AutoStart
         For restart on a previous wavefunction, please use MOREAD

INFO   : the flag for use of the SHARK integral package has been found!



***************************************
The coordinates will be read from file: 
***************************************


Your calculation utilizes the SMD solvation module
Please cite in your paper:
A.V. Marenich, C.J. Cramer, D.G. Truhlar J. Phys. Chem. B, 113, (2009), 6378 

================================================================================

----- Orbital basis set information -----
Your calculation utilizes the basis: aug-cc-pVTZ 
    H, B-Ne : Obtained from the ccRepo (grant-hill.group.shef.ac.uk/ccrepo) Feb. 2017
              R. A. Kendall, T. H. Dunning, Jr., R. J. Harrison, J. Chem. Phys. 96, 6796 (1992)
         He : Obtained from the ccRepo (grant-hill.group.shef.ac.uk/ccrepo) Feb. 2017
              D. E. Woon, T. H. Dunning, Jr., J. Chem. Phys. 100, 2975 (1994)
  Li-Be, Na : Obtained from the ccRepo (grant-hill.group.shef.ac.uk/ccrepo) Feb. 2017
              B. P. Prascher, D. E. Woon, K. A. Peterson, T. H. Dunning, Jr., A. K. Wilson, Theor. Chem. Acc. 128, 69 (2011)
         Mg : Obtained from the Peterson Research Group Website (tyr0.chem.wsu.edu/~kipeters) Feb. 2017
              B. P. Prascher, D. E. Woon, K. A. Peterson, T. H. Dunning, Jr., A. K. Wilson, Theor. Chem. Acc. 128, 69 (2011)
      Al-Ar : Obtained from the ccRepo (grant-hill.group.shef.ac.uk/ccrepo) Feb. 2017
              D. E. Woon, T. H. Dunning, Jr., J. Chem. Phys. 98, 1358 (1993)
      Sc-Zn : Obtained from the ccRepo (grant-hill.group.shef.ac.uk/ccrepo) Feb. 2017
              N. B. Balabanov, K. A. Peterson, J. Chem. Phys. 123, 064107 (2005)
              N. B. Balabanov, K. A. Peterson, J. Chem. Phys. 125, 074110 (2006)
      Ga-Kr : Obtained from the ccRepo (grant-hill.group.shef.ac.uk/ccrepo) Feb. 2017
              A. K. Wilson, D. E. Woon, K. A. Peterson, T. H. Dunning, Jr., J. Chem. Phys. 110, 7667 (1999)
     Ag, Au : Obtained from the Peterson Research Group Website (tyr0.chem.wsu.edu/~kipeters) Feb. 2017
              K. A. Peterson, C. Puzzarini, Theor. Chem. Acc. 114, 283 (2005)

The basis set includes element-specific modifications.

Your calculation utilizes the basis: cc-pVTZ 
       H, B-Ne : Obtained from the ccRepo (grant-hill.group.shef.ac.uk/ccrepo) Feb. 2017
                 T. H. Dunning, Jr., J. Chem. Phys. 90, 1007 (1989)
            He : Obtained from the ccRepo (grant-hill.group.shef.ac.uk/ccrepo) Feb. 2017
                 D. E. Woon, T. H. Dunning, Jr., J. Chem. Phys. 100, 2975 (1994)
  Li-Be, Na-Mg : Obtained from the ccRepo (grant-hill.group.shef.ac.uk/ccrepo) Feb. 2017
                 B. P. Prascher, D. E. Woon, K. A. Peterson, T. H. Dunning, Jr., A. K. Wilson, Theor. Chem. Acc. 128, 69 (2011)
         Al-Ar : Obtained from the ccRepo (grant-hill.group.shef.ac.uk/ccrepo) Feb. 2017
                 D. E. Woon, T. H. Dunning, Jr., J. Chem. Phys. 98, 1358 (1993)
            Ca : Obtained from the Peterson Research Group Website (tyr0.chem.wsu.edu/~kipeters) Feb. 2017
                 J. Koput, K. A. Peterson, J. Phys. Chem. 106, 9595 (2002)
         Sc-Zn : Obtained from the ccRepo (grant-hill.group.shef.ac.uk/ccrepo) Feb. 2017
                 N. B. Balabanov, K. A. Peterson, J. Chem. Phys. 123, 064107 (2005)
                 N. B. Balabanov, K. A. Peterson, J. Chem. Phys. 125, 074110 (2006)
         Ga-Kr : Obtained from the ccRepo (grant-hill.group.shef.ac.uk/ccrepo) Feb. 2017
                 A. K. Wilson, D. E. Woon, K. A. Peterson, T. H. Dunning, Jr., J. Chem. Phys. 110, 7667 (1999)
             Y : Obtained from the ccRepo (grant-hill.group.shef.ac.uk/ccrepo) Feb. 2017
                 K. A. Peterson, D. Figgen, M. Dolg, H. Stoll, J. Chem. Phys. 126, 124101 (2007)
        Ag, Au : Obtained from the Peterson Research Group Website (tyr0.chem.wsu.edu/~kipeters) Feb. 2017
                 K. A. Peterson, C. Puzzarini, Theor. Chem. Acc. 114, 283 (2005)

----- AuxJ basis set information -----
Your calculation utilizes the auxiliary basis: aug-cc-pVTZ/JK 
  H, B-F, Al-Cl, Ga-Br : Obtained from the TURBOMOLE 7.0 basis set library

The basis set includes element-specific modifications.

Your calculation utilizes the auxiliary basis: cc-pVTZ/JK 
  H, B-F, Al-Cl, Ga-Br : Obtained from the TURBOMOLE 7.0 basis set library

----- AuxC basis set information -----
Your calculation utilizes the auxiliary basis: aug-cc-pVTZ/C 
  H-He, B-F, Al-Ar, Ga-Kr : Obtained from the EMSL Basis Set Exchange (bse.pnl.gov) Feb. 2017
                            F. Weigend, A. Kohn, C. Hattig, J. Chem. Phys. 116, 3175 (2002)
                   Be, Mg : Obtained from the TURBOMOLE 7.0 basis set library
                            C. Haettig, Phys. Chem. Chem. Phys. 7, 59 (2005)
                       Ne : Obtained from the EMSL Basis Set Exchange (bse.pnl.gov) Feb. 2017
                            C. Haettig, Phys. Chem. Chem. Phys. 7, 59 (2005)
                            F. Weigend, A. Kohn, C. Hattig, J. Chem. Phys. 116, 3175 (2002)
                    Sc-Zn : Obtained from the EMSL Basis Set Exchange (bse.pnl.gov) Feb. 2017
                            J. G. Hill, J. A. Platts, J. Chem. Phys. 128, 044104 (2008)

The basis set includes element-specific modifications.

Your calculation utilizes the auxiliary basis: cc-pVTZ/C 
  Obtained from the EMSL Basis Set Exchange (bse.pnl.gov) Feb. 2017
  H-He, B-F, Al-Ar, Ga-Kr : F. Weigend, A. Kohn, C. Hattig, J. Chem. Phys. 116, 3175 (2002)
             Li-Be, Na-Mg : C. Haettig, Phys. Chem. Chem. Phys. 7, 59 (2005)
                       Ne : C. Haettig, Phys. Chem. Chem. Phys. 7, 59 (2005)
                            F. Weigend, A. Kohn, C. Hattig, J. Chem. Phys. 116, 3175 (2002)
                    Sc-Zn : J. G. Hill, J. A. Platts, J. Chem. Phys. 128, 044104 (2008)

================================================================================
                                        WARNINGS
                       Please study these warnings very carefully!
================================================================================

INFO   : Checking CIS options ...

INFO   : the flag for use of the SHARK integral package has been found!

================================================================================
                                       INPUT FILE
================================================================================
NAME = b3lyp-train-2.inp
|  1> ! b3lyp aug-cc-PVTZ RIJCOSX Opt
|  2> %maxcore 4000
|  3> %basis
|  4>  AuxJ "aug-cc-PVTZ/JK"
|  5>  AuxC "aug-cc-PVTZ/C"
|  6>  newGTO H "cc-PVTZ" end
|  7>  newAuxJGTO H "cc-PVTZ/JK" end
|  8>  newAuxCGTO H "cc-PVTZ/C" end
|  9> end
| 10> %cpcm
| 11>  SMD true
| 12>  SMDsolvent "dichloromethane"
| 13> end
| 14> %pal nprocs 4 end
| 15> * xyz 0 1
| 16> F          0.72380        3.39900        2.61910
| 17> B          0.91350        2.05130        2.60710
| 18> F          1.14070        1.54790        3.85390
| 19> O         -0.32270        1.40010        2.05040
| 20> C         -0.27780        0.65900        1.00080
| 21> C         -1.49040        0.07470        0.56860
| 22> C         -2.54740       -0.40390        0.22560
| 23> C         -3.76600       -0.97090       -0.19280
| 24> C         -3.84740       -1.64970       -1.41190
| 25> C         -5.04980       -2.19760       -1.81280
| 26> C         -6.17350       -2.07890       -1.00860
| 27> C         -6.09630       -1.40760        0.20250
| 28> C         -4.90110       -0.85190        0.61430
| 29> C          0.89140        0.40810        0.27860
| 30> C          2.07760        0.99670        0.71400
| 31> C          3.35730        0.77730        0.02690
| 32> C          4.54130        1.00820        0.73150
| 33> C          5.76580        0.80880        0.12520
| 34> C          5.82630        0.38700       -1.19380
| 35> C          4.65640        0.16970       -1.90530
| 36> C          3.42730        0.36000       -1.30310
| 37> O          2.11970        1.75080        1.75630
| 38> H         -2.96700       -1.73660       -2.03120
| 39> H         -5.11380       -2.72020       -2.75560
| 40> H         -7.11080       -2.51020       -1.32670
| 41> H         -6.97290       -1.31740        0.82620
| 42> H         -4.82870       -0.32640        1.55440
| 43> H          0.85920       -0.24490       -0.57350
| 44> H          4.47670        1.33690        1.75720
| 45> H          6.67530        0.98420        0.67950
| 46> H          6.78320        0.23290       -1.66970
| 47> H          4.70400       -0.14690       -2.93650
| 48> H          2.52610        0.21060       -1.87670
| 49> *
| 50> 
| 51> 
| 52> $new_job
| 53> ! b3lyp aug-cc-PVTZ RIJCOSX SP
| 54> %maxcore 4000
| 55> %basis
| 56>  AuxJ "aug-cc-PVTZ/JK"
| 57>  AuxC "aug-cc-PVTZ/C"
| 58>  newGTO H "cc-PVTZ" end
| 59>  newAuxJGTO H "cc-PVTZ/JK" end
| 60>  newAuxCGTO H "cc-PVTZ/C" end
| 61> end
| 62> %cpcm
| 63>  SMD true
| 64>  SMDsolvent "dichloromethane"
| 65> end
| 66> %pal nprocs 4 end
| 67> %tddft
| 68>  nroots 10
| 69>  maxdim 7
| 70> end
| 71> * xyzfile 0 1
| 72> 
| 73>                          ****END OF INPUT****
================================================================================


                 $$$$$$$$$$$$$$$$$$$$$$$$$$$$$$$$$$$$$$$$$$$$$$ 
                 $ THERE ARE  2 JOBS TO BE PROCESSED THIS RUN $
                 $$$$$$$$$$$$$$$$$$$$$$$$$$$$$$$$$$$$$$$$$$$$$$ 




                 $$$$$$$$$$$$$$$$  JOB NUMBER  1 $$$$$$$$$$$$$$


                       *****************************
                       * Geometry Optimization Run *
                       *****************************

Geometry optimization settings:
Update method            Update   .... BFGS
Choice of coordinates    CoordSys .... Z-matrix Internals
Initial Hessian          InHess   .... Almoef's Model

Convergence Tolerances:
Energy Change            TolE     ....  5.0000e-06 Eh
Max. Gradient            TolMAXG  ....  3.0000e-04 Eh/bohr
RMS Gradient             TolRMSG  ....  1.0000e-04 Eh/bohr
Max. Displacement        TolMAXD  ....  4.0000e-03 bohr
RMS Displacement         TolRMSD  ....  2.0000e-03 bohr
Strict Convergence                ....  False
------------------------------------------------------------------------------
                        ORCA OPTIMIZATION COORDINATE SETUP
------------------------------------------------------------------------------

The optimization will be done in new redundant internal coordinates
Making redundant internal coordinates   ...  (new redundants) done
Evaluating the initial hessian          ...  (Almloef) done
Evaluating the coordinates              ...  done
Calculating the B-matrix                .... done
Calculating the G-matrix                .... done
Diagonalizing the G-matrix              .... done
Small eigenvalue found = 1.473e-03
Small eigenvalue found = 1.094e-02
Small eigenvalue found = 1.619e-02
Small eigenvalue found = 2.710e-02
The first mode is                       ....   73
The number of degrees of freedom        ....   93

    -----------------------------------------------------------------
                    Redundant Internal Coordinates


    -----------------------------------------------------------------
         Definition                    Initial Value    Approx d2E/dq
    -----------------------------------------------------------------
      1. B(B   1,F   0)                  1.3610         0.669870   
      2. B(F   2,B   1)                  1.3637         0.663474   
      3. B(O   3,B   1)                  1.5041         0.426318   
      4. B(C   4,O   3)                  1.2857         0.821019   
      5. B(C   5,C   4)                  1.4137         0.572659   
      6. B(C   6,C   5)                  1.2099         1.210632   
      7. B(C   7,C   6)                  1.4077         0.585528   
      8. B(C   8,C   7)                  1.3977         0.607343   
      9. B(C   9,C   8)                  1.3808         0.646212   
     10. B(C  10,C   9)                  1.3869         0.631921   
     11. B(C  11,C  10)                  1.3869         0.632057   
     12. B(C  12,C  11)                  1.3809         0.646036   
     13. B(C  12,C   7)                  1.3979         0.607005   
     14. B(C  13,C   4)                  1.3970         0.608980   
     15. B(C  14,C  13)                  1.3939         0.615798   
     16. B(C  15,C  14)                  1.4690         0.467462   
     17. B(C  16,C  15)                  1.3970         0.608916   
     18. B(C  17,C  16)                  1.3809         0.646143   
     19. B(C  18,C  17)                  1.3861         0.633759   
     20. B(C  19,C  18)                  1.3864         0.633104   
     21. B(C  20,C  19)                  1.3819         0.643755   
     22. B(C  20,C  15)                  1.3957         0.611881   
     23. B(O  21,C  14)                  1.2872         0.816433   
     24. B(O  21,B   1)                  1.5063         0.422736   
     25. B(H  22,C   8)                  1.0799         0.373709   
     26. B(H  23,C   9)                  1.0799         0.373779   
     27. B(H  24,C  10)                  1.0797         0.373995   
     28. B(H  25,C  11)                  1.0796         0.374106   
     29. B(H  26,C  12)                  1.0794         0.374351   
     30. B(H  27,C  13)                  1.0740         0.381871   
     31. B(H  28,C  16)                  1.0790         0.374926   
     32. B(H  29,C  17)                  1.0794         0.374336   
     33. B(H  30,C  18)                  1.0798         0.373902   
     34. B(H  31,C  19)                  1.0798         0.373909   
     35. B(H  32,C  20)                  1.0787         0.375424   
     36. A(F   2,B   1,O  21)          108.0204         0.410300   
     37. A(F   0,B   1,F   2)          112.3770         0.443643   
     38. A(F   0,B   1,O   3)          108.5074         0.411614   
     39. A(O   3,B   1,O  21)          111.2671         0.381283   
     40. A(F   2,B   1,O   3)          108.3926         0.410914   
     41. A(F   0,B   1,O  21)          108.3078         0.410999   
     42. A(B   1,O   3,C   4)          121.5369         0.424957   
     43. A(O   3,C   4,C   5)          117.2502         0.447188   
     44. A(O   3,C   4,C  13)          123.6978         0.452208   
     45. A(C   5,C   4,C  13)          119.0520         0.426545   
     46. L(C   4,C   5,C   6,O   3, 1) 178.1495         0.483342   
     47. L(C   4,C   5,C   6,O   3, 2) 179.5246         0.483342   
     48. L(C   5,C   6,C   7,C   8, 1) 179.0062         0.485330   
     49. L(C   5,C   6,C   7,C   8, 2) 179.8023         0.485330   
     50. A(C   8,C   7,C  12)          119.8447         0.430816   
     51. A(C   6,C   7,C  12)          119.8053         0.427998   
     52. A(C   6,C   7,C   8)          120.3499         0.428041   
     53. A(C   7,C   8,C   9)          119.7784         0.435693   
     54. A(C   9,C   8,H  22)          120.7627         0.357640   
     55. A(C   7,C   8,H  22)          119.4586         0.353895   
     56. A(C   8,C   9,C  10)          120.2128         0.438820   
     57. A(C  10,C   9,H  23)          119.9773         0.356295   
     58. A(C   8,C   9,H  23)          119.8099         0.357651   
     59. A(C   9,C  10,C  11)          120.1782         0.437071   
     60. A(C  11,C  10,H  24)          119.9317         0.356343   
     61. A(C   9,C  10,H  24)          119.8901         0.356330   
     62. A(C  12,C  11,H  25)          119.7929         0.357688   
     63. A(C  10,C  11,H  25)          119.9826         0.356361   
     64. A(C  10,C  11,C  12)          120.2244         0.438815   
     65. A(C   7,C  12,H  26)          119.3295         0.353964   
     66. A(C  11,C  12,H  26)          120.9092         0.357728   
     67. A(C   7,C  12,C  11)          119.7612         0.435628   
     68. A(C  14,C  13,H  27)          122.0089         0.356027   
     69. A(C   4,C  13,H  27)          119.6208         0.355355   
     70. A(C   4,C  13,C  14)          118.3528         0.432140   
     71. A(C  13,C  14,C  15)          122.1512         0.412202   
     72. A(C  15,C  14,O  21)          115.9614         0.430671   
     73. A(C  13,C  14,O  21)          121.8798         0.452663   
     74. A(C  16,C  15,C  20)          119.1788         0.431636   
     75. A(C  14,C  15,C  20)          122.2814         0.411736   
     76. A(C  14,C  15,C  16)          118.5371         0.411381   
     77. A(C  15,C  16,H  28)          118.6234         0.354245   
     78. A(C  17,C  16,H  28)          120.9614         0.357831   
     79. A(C  15,C  16,C  17)          120.4136         0.435888   
     80. A(C  18,C  17,H  29)          120.0866         0.356561   
     81. A(C  16,C  17,H  29)          119.8827         0.357736   
     82. A(C  16,C  17,C  18)          120.0305         0.439042   
     83. A(C  19,C  18,H  30)          119.9512         0.356428   
     84. A(C  17,C  18,H  30)          120.1001         0.356491   
     85. A(C  17,C  18,C  19)          119.9478         0.437430   
     86. A(C  18,C  19,C  20)          120.3527         0.438666   
     87. A(C  20,C  19,H  31)          119.7213         0.357441   
     88. A(C  18,C  19,H  31)          119.9257         0.356429   
     89. A(C  15,C  20,C  19)          120.0704         0.435978   
     90. A(C  19,C  20,H  32)          119.4924         0.357687   
     91. A(C  15,C  20,H  32)          120.4147         0.354616   
     92. A(B   1,O  21,C  14)          123.2327         0.423891   
     93. D(C   4,O   3,B   1,F   0)    121.0462         0.011865   
     94. D(C   4,O   3,B   1,F   2)   -116.6520         0.011865   
     95. D(C   4,O   3,B   1,O  21)      1.9848         0.011865   
     96. D(C  13,C   4,O   3,B   1)     -1.0221         0.052280   
     97. D(C   5,C   4,O   3,B   1)    179.0147         0.052280   
     98. D(C   8,C   7,C   4,C  13)     -7.8498         0.001500   
     99. D(C   8,C   7,C   4,O   3)    171.9278         0.001500   
    100. D(C  12,C   7,C   4,O   3)     -7.8166         0.001500   
    101. D(C  12,C   7,C   4,C  13)    172.4057         0.001500   
    102. D(H  22,C   8,C   7,C   6)      0.0345         0.025463   
    103. D(C   9,C   8,C   7,C  12)      0.0821         0.025463   
    104. D(H  22,C   8,C   7,C  12)    179.9066         0.025463   
    105. D(C   9,C   8,C   7,C   6)   -179.7900         0.025463   
    106. D(C  10,C   9,C   8,H  22)   -179.9824         0.029052   
    107. D(C  10,C   9,C   8,C   7)     -0.1602         0.029052   
    108. D(H  23,C   9,C   8,H  22)      0.0395         0.029052   
    109. D(H  23,C   9,C   8,C   7)    179.8616         0.029052   
    110. D(H  24,C  10,C   9,H  23)      0.0415         0.027698   
    111. D(H  24,C  10,C   9,C   8)   -179.9366         0.027698   
    112. D(C  11,C  10,C   9,H  23)   -179.9439         0.027698   
    113. D(C  11,C  10,C   9,C   8)      0.0780         0.027698   
    114. D(H  25,C  11,C  10,H  24)      0.0375         0.027711   
    115. D(H  25,C  11,C  10,C   9)   -179.9772         0.027711   
    116. D(C  12,C  11,C  10,H  24)   -179.9008         0.027711   
    117. D(C  12,C  11,C  10,C   9)      0.0846         0.027711   
    118. D(C   7,C  12,C  11,C  10)     -0.1618         0.029035   
    119. D(H  26,C  12,C   7,C   8)    179.9673         0.025433   
    120. D(H  26,C  12,C   7,C   6)     -0.1599         0.025433   
    121. D(C  11,C  12,C   7,C   8)      0.0788         0.025433   
    122. D(C   7,C  12,C  11,H  25)    179.8998         0.029035   
    123. D(C  11,C  12,C   7,C   6)    179.9515         0.025433   
    124. D(H  26,C  12,C  11,H  25)      0.0130         0.029035   
    125. D(H  26,C  12,C  11,C  10)    179.9514         0.029035   
    126. D(H  27,C  13,C   4,C   5)     -1.7908         0.025608   
    127. D(H  27,C  13,C   4,O   3)    178.2466         0.025608   
    128. D(C  14,C  13,C   4,C   5)    179.7009         0.025608   
    129. D(C  14,C  13,C   4,O   3)     -0.2617         0.025608   
    130. D(O  21,C  14,C  13,H  27)   -178.1374         0.026219   
    131. D(O  21,C  14,C  13,C   4)      0.3334         0.026219   
    132. D(C  15,C  14,C  13,H  27)      0.8174         0.026219   
    133. D(C  15,C  14,C  13,C   4)    179.2881         0.026219   
    134. D(C  20,C  15,C  14,O  21)   -159.3682         0.014881   
    135. D(C  20,C  15,C  14,C  13)     21.6190         0.014881   
    136. D(C  16,C  15,C  14,O  21)     20.0272         0.014881   
    137. D(C  16,C  15,C  14,C  13)   -158.9856         0.014881   
    138. D(H  28,C  16,C  15,C  20)    179.5982         0.025602   
    139. D(H  28,C  16,C  15,C  14)      0.1836         0.025602   
    140. D(C  17,C  16,C  15,C  20)     -0.8613         0.025602   
    141. D(C  17,C  16,C  15,C  14)    179.7242         0.025602   
    142. D(H  29,C  17,C  16,H  28)     -0.1066         0.029045   
    143. D(H  29,C  17,C  16,C  15)   -179.6363         0.029045   
    144. D(C  18,C  17,C  16,H  28)   -179.9639         0.029045   
    145. D(C  18,C  17,C  16,C  15)      0.5065         0.029045   
    146. D(H  30,C  18,C  17,H  29)      0.0032         0.027870   
    147. D(H  30,C  18,C  17,C  16)    179.8601         0.027870   
    148. D(C  19,C  18,C  17,H  29)   -179.6439         0.027870   
    149. D(C  19,C  18,C  17,C  16)      0.2130         0.027870   
    150. D(H  31,C  19,C  18,H  30)     -0.4156         0.027809   
    151. D(H  31,C  19,C  18,C  17)    179.2320         0.027809   
    152. D(C  20,C  19,C  18,H  30)    179.7805         0.027809   
    153. D(C  20,C  19,C  18,C  17)     -0.5719         0.027809   
    154. D(C  19,C  20,C  15,C  16)      0.5023         0.025867   
    155. D(C  19,C  20,C  15,C  14)    179.8939         0.025867   
    156. D(H  32,C  20,C  19,H  31)     -1.3144         0.028816   
    157. D(H  32,C  20,C  19,C  18)    178.4900         0.028816   
    158. D(C  15,C  20,C  19,H  31)   -179.5953         0.028816   
    159. D(C  15,C  20,C  19,C  18)      0.2090         0.028816   
    160. D(H  32,C  20,C  15,C  16)   -177.7626         0.025867   
    161. D(H  32,C  20,C  15,C  14)      1.6290         0.025867   
    162. D(B   1,O  21,C  14,C  15)   -178.1208         0.051626   
    163. D(B   1,O  21,C  14,C  13)      0.8949         0.051626   
    164. D(C  14,O  21,B   1,O   3)     -1.9494         0.011676   
    165. D(C  14,O  21,B   1,F   2)    116.9105         0.011676   
    166. D(C  14,O  21,B   1,F   0)   -121.1301         0.011676   
    -----------------------------------------------------------------

Number of atoms                         .... 33
Number of degrees of freedom            .... 166

         *************************************************************
         *                GEOMETRY OPTIMIZATION CYCLE   1            *
         *************************************************************
---------------------------------
CARTESIAN COORDINATES (ANGSTROEM)
---------------------------------
  F      0.723800    3.399000    2.619100
  B      0.913500    2.051300    2.607100
  F      1.140700    1.547900    3.853900
  O     -0.322700    1.400100    2.050400
  C     -0.277800    0.659000    1.000800
  C     -1.490400    0.074700    0.568600
  C     -2.547400   -0.403900    0.225600
  C     -3.766000   -0.970900   -0.192800
  C     -3.847400   -1.649700   -1.411900
  C     -5.049800   -2.197600   -1.812800
  C     -6.173500   -2.078900   -1.008600
  C     -6.096300   -1.407600    0.202500
  C     -4.901100   -0.851900    0.614300
  C      0.891400    0.408100    0.278600
  C      2.077600    0.996700    0.714000
  C      3.357300    0.777300    0.026900
  C      4.541300    1.008200    0.731500
  C      5.765800    0.808800    0.125200
  C      5.826300    0.387000   -1.193800
  C      4.656400    0.169700   -1.905300
  C      3.427300    0.360000   -1.303100
  O      2.119700    1.750800    1.756300
  H     -2.967000   -1.736600   -2.031200
  H     -5.113800   -2.720200   -2.755600
  H     -7.110800   -2.510200   -1.326700
  H     -6.972900   -1.317400    0.826200
  H     -4.828700   -0.326400    1.554400
  H      0.859200   -0.244900   -0.573500
  H      4.476700    1.336900    1.757200
  H      6.675300    0.984200    0.679500
  H      6.783200    0.232900   -1.669700
  H      4.704000   -0.146900   -2.936500
  H      2.526100    0.210600   -1.876700

----------------------------
CARTESIAN COORDINATES (A.U.)
----------------------------
  NO LB      ZA    FRAG     MASS         X           Y           Z
   0 F     9.0000    0    18.998    1.367784    6.423179    4.949382
   1 B     5.0000    0    10.810    1.726265    3.876395    4.926705
   2 F     9.0000    0    18.998    2.155611    2.925107    7.282816
   3 O     8.0000    0    15.999   -0.609815    2.645806    3.874694
   4 C     6.0000    0    12.011   -0.524966    1.245330    1.891238
   5 C     6.0000    0    12.011   -2.816448    0.141163    1.074498
   6 C     6.0000    0    12.011   -4.813888   -0.763260    0.426322
   7 C     6.0000    0    12.011   -7.116709   -1.834735   -0.364339
   8 C     6.0000    0    12.011   -7.270532   -3.117481   -2.668104
   9 C     6.0000    0    12.011   -9.542739   -4.152862   -3.425696
  10 C     6.0000    0    12.011  -11.666224   -3.928552   -1.905978
  11 C     6.0000    0    12.011  -11.520337   -2.659979    0.382670
  12 C     6.0000    0    12.011   -9.261737   -1.609858    1.160859
  13 C     6.0000    0    12.011    1.684502    0.771197    0.526478
  14 C     6.0000    0    12.011    3.926095    1.883490    1.349264
  15 C     6.0000    0    12.011    6.344378    1.468884    0.050834
  16 C     6.0000    0    12.011    8.581813    1.905222    1.382335
  17 C     6.0000    0    12.011   10.895783    1.528410    0.236594
  18 C     6.0000    0    12.011   11.010111    0.731324   -2.255955
  19 C     6.0000    0    12.011    8.799321    0.320687   -3.600495
  20 C     6.0000    0    12.011    6.476658    0.680301   -2.462502
  21 O     8.0000    0    15.999    4.005652    3.308533    3.318926
  22 H     1.0000    0     1.008   -5.606817   -3.281698   -3.838412
  23 H     1.0000    0     1.008   -9.663682   -5.140433   -5.207329
  24 H     1.0000    0     1.008  -13.437465   -4.743591   -2.507100
  25 H     1.0000    0     1.008  -13.176871   -2.489525    1.561292
  26 H     1.0000    0     1.008   -9.124921   -0.616807    2.937390
  27 H     1.0000    0     1.008    1.623653   -0.462794   -1.083758
  28 H     1.0000    0     1.008    8.459737    2.526375    3.320627
  29 H     1.0000    0     1.008   12.614489    1.859868    1.284069
  30 H     1.0000    0     1.008   12.818390    0.440117   -3.155276
  31 H     1.0000    0     1.008    8.889272   -0.277601   -5.549181
  32 H     1.0000    0     1.008    4.773637    0.397976   -3.546449

--------------------------------
INTERNAL COORDINATES (ANGSTROEM)
--------------------------------
 F      0   0   0     0.000000000000     0.00000000     0.00000000
 B      1   0   0     1.361038346264     0.00000000     0.00000000
 F      2   1   0     1.363650116415   112.37700882     0.00000000
 O      2   1   3     1.504050122170   108.50739916   119.84415182
 C      4   2   1     1.285653678095   121.53692283   121.04622605
 C      5   4   2     1.413719240161   117.25020729   179.01470229
 C      6   5   4     1.209940477875   178.13370030     7.66502221
 C      7   6   5     1.407669535083   179.00126350   170.21456246
 C      8   7   6     1.397712491895   120.34987170   354.19872640
 C      9   8   7     1.380826194711   119.77839165   180.21003037
 C     10   9   8     1.386913486848   120.21283228   359.83978019
 C     11  10   9     1.386854981604   120.17820755     0.07800457
 C     12  11  10     1.380899985517   120.22438290     0.08455612
 C      5   4   2     1.396979702787   123.69776803   358.97786779
 C     14   5   4     1.393948908676   118.35277050   359.73834624
 C     15  14   5     1.468970680443   122.15117844   179.28808665
 C     16  15  14     1.397008221164   118.53706876   201.01440542
 C     17  16  15     1.380854916347   120.41360988   179.72415223
 C     18  17  16     1.386122826448   120.03047794     0.50649192
 C     19  18  17     1.386404540529   119.94779471     0.21304194
 C     20  19  18     1.381863140836   120.35272743   359.42805201
 O     15  14   5     1.287178507434   121.87981749     0.33336731
 H      9   8   7     1.079901967773   119.45863538     0.03451984
 H     10   9   8     1.079851193452   119.80989019   179.86163658
 H     11  10   9     1.079693748245   119.89012660   180.06335326
 H     12  11  10     1.079613491024   119.98264211   180.02283970
 H     13  12  11     1.079435046680   120.90921105   179.95140607
 H     14   5   4     1.074020600361   119.62078124   178.24663773
 H     17  16  15     1.079016839535   118.62341274     0.18363142
 H     18  17  16     1.079446107965   119.88274305   180.36371353
 H     19  18  17     1.079761654255   120.10007515   179.86010635
 H     20  19  18     1.079756805952   119.92572976   179.23201110
 H     21  20  19     1.078655997063   119.49239500   178.48995085

---------------------------
INTERNAL COORDINATES (A.U.)
---------------------------
 F      0   0   0     0.000000000000     0.00000000     0.00000000
 B      1   0   0     2.571989732203     0.00000000     0.00000000
 F      2   1   0     2.576925262515   112.37700882     0.00000000
 O      2   1   3     2.842242822592   108.50739916   119.84415182
 C      4   2   1     2.429533354669   121.53692283   121.04622605
 C      5   4   2     2.671542194159   117.25020729   179.01470229
 C      6   5   4     2.286456141529   178.13370030     7.66502221
 C      7   6   5     2.660109908371   179.00126350   170.21456246
 C      8   7   6     2.641293823643   120.34987170   354.19872640
 C      9   8   7     2.609383346548   119.77839165   180.21003037
 C     10   9   8     2.620886661584   120.21283228   359.83978019
 C     11  10   9     2.620776102696   120.17820755     0.07800457
 C     12  11  10     2.609522790962   120.22438290     0.08455612
 C      5   4   2     2.639909052915   123.69776803   358.97786779
 C     14   5   4     2.634181682077   118.35277050   359.73834624
 C     15  14   5     2.775952284796   122.15117844   179.28808665
 C     16  15  14     2.639962944837   118.53706876   201.01440542
 C     17  16  15     2.609437622575   120.41360988   179.72415223
 C     18  17  16     2.619392529963   120.03047794     0.50649192
 C     19  18  17     2.619924892425   119.94779471     0.21304194
 C     20  19  18     2.611342890740   120.35272743   359.42805201
 O     15  14   5     2.432414864520   121.87981749     0.33336731
 H      9   8   7     2.040718970574   119.45863538     0.03451984
 H     10   9   8     2.040623021013   119.80989019   179.86163658
 H     11  10   9     2.040325492691   119.89012660   180.06335326
 H     12  11  10     2.040173828521   119.98264211   180.02283970
 H     13  12  11     2.039836617581   120.90921105   179.95140607
 H     14   5   4     2.029604796872   119.62078124   178.24663773
 H     17  16  15     2.039046320610   118.62341274     0.18363142
 H     18  17  16     2.039857520380   119.88274305   180.36371353
 H     19  18  17     2.040453816452   120.10007515   179.86010635
 H     20  19  18     2.040444654487   119.92572976   179.23201110
 H     21  20  19     2.038364427161   119.49239500   178.48995085

---------------------
BASIS SET INFORMATION
---------------------
There are 5 groups of distinct atoms

 Group   1 Type F   : 19s6p3d2f contracted to 5s4p3d2f pattern {88111/3111/111/11}
 Group   2 Type B   : 19s6p3d2f contracted to 5s4p3d2f pattern {88111/3111/111/11}
 Group   3 Type O   : 19s6p3d2f contracted to 5s4p3d2f pattern {88111/3111/111/11}
 Group   4 Type C   : 19s6p3d2f contracted to 5s4p3d2f pattern {88111/3111/111/11}
 Group   5 Type H   : 5s2p1d contracted to 3s2p1d pattern {311/11/1}

Atom   0F    basis set group =>   1
Atom   1B    basis set group =>   2
Atom   2F    basis set group =>   1
Atom   3O    basis set group =>   3
Atom   4C    basis set group =>   4
Atom   5C    basis set group =>   4
Atom   6C    basis set group =>   4
Atom   7C    basis set group =>   4
Atom   8C    basis set group =>   4
Atom   9C    basis set group =>   4
Atom  10C    basis set group =>   4
Atom  11C    basis set group =>   4
Atom  12C    basis set group =>   4
Atom  13C    basis set group =>   4
Atom  14C    basis set group =>   4
Atom  15C    basis set group =>   4
Atom  16C    basis set group =>   4
Atom  17C    basis set group =>   4
Atom  18C    basis set group =>   4
Atom  19C    basis set group =>   4
Atom  20C    basis set group =>   4
Atom  21O    basis set group =>   3
Atom  22H    basis set group =>   5
Atom  23H    basis set group =>   5
Atom  24H    basis set group =>   5
Atom  25H    basis set group =>   5
Atom  26H    basis set group =>   5
Atom  27H    basis set group =>   5
Atom  28H    basis set group =>   5
Atom  29H    basis set group =>   5
Atom  30H    basis set group =>   5
Atom  31H    basis set group =>   5
Atom  32H    basis set group =>   5
---------------------------------
AUXILIARY/J BASIS SET INFORMATION
---------------------------------
There are 5 groups of distinct atoms

 Group   1 Type F   : 10s7p5d2f1g contracted to 10s7p5d2f1g pattern {1111111111/1111111/11111/11/1}
 Group   2 Type B   : 10s7p5d2f1g contracted to 10s7p5d2f1g pattern {1111111111/1111111/11111/11/1}
 Group   3 Type O   : 10s7p5d2f1g contracted to 10s7p5d2f1g pattern {1111111111/1111111/11111/11/1}
 Group   4 Type C   : 10s7p5d2f1g contracted to 10s7p5d2f1g pattern {1111111111/1111111/11111/11/1}
 Group   5 Type H   : 4s3p2d1f contracted to 4s3p2d1f pattern {1111/111/11/1}

Atom   0F    basis set group =>   1
Atom   1B    basis set group =>   2
Atom   2F    basis set group =>   1
Atom   3O    basis set group =>   3
Atom   4C    basis set group =>   4
Atom   5C    basis set group =>   4
Atom   6C    basis set group =>   4
Atom   7C    basis set group =>   4
Atom   8C    basis set group =>   4
Atom   9C    basis set group =>   4
Atom  10C    basis set group =>   4
Atom  11C    basis set group =>   4
Atom  12C    basis set group =>   4
Atom  13C    basis set group =>   4
Atom  14C    basis set group =>   4
Atom  15C    basis set group =>   4
Atom  16C    basis set group =>   4
Atom  17C    basis set group =>   4
Atom  18C    basis set group =>   4
Atom  19C    basis set group =>   4
Atom  20C    basis set group =>   4
Atom  21O    basis set group =>   3
Atom  22H    basis set group =>   5
Atom  23H    basis set group =>   5
Atom  24H    basis set group =>   5
Atom  25H    basis set group =>   5
Atom  26H    basis set group =>   5
Atom  27H    basis set group =>   5
Atom  28H    basis set group =>   5
Atom  29H    basis set group =>   5
Atom  30H    basis set group =>   5
Atom  31H    basis set group =>   5
Atom  32H    basis set group =>   5
---------------------------------
AUXILIARY/C BASIS SET INFORMATION
---------------------------------
There are 5 groups of distinct atoms

 Group   1 Type F   : 9s7p6d4f2g contracted to 9s7p6d4f2g pattern {111111111/1111111/111111/1111/11}
 Group   2 Type B   : 9s7p6d4f2g contracted to 9s7p6d4f2g pattern {111111111/1111111/111111/1111/11}
 Group   3 Type O   : 9s7p6d4f2g contracted to 9s7p6d4f2g pattern {111111111/1111111/111111/1111/11}
 Group   4 Type C   : 9s7p6d4f2g contracted to 9s7p6d4f2g pattern {111111111/1111111/111111/1111/11}
 Group   5 Type H   : 4s3p2d1f contracted to 4s3p2d1f pattern {1111/111/11/1}

Atom   0F    basis set group =>   1
Atom   1B    basis set group =>   2
Atom   2F    basis set group =>   1
Atom   3O    basis set group =>   3
Atom   4C    basis set group =>   4
Atom   5C    basis set group =>   4
Atom   6C    basis set group =>   4
Atom   7C    basis set group =>   4
Atom   8C    basis set group =>   4
Atom   9C    basis set group =>   4
Atom  10C    basis set group =>   4
Atom  11C    basis set group =>   4
Atom  12C    basis set group =>   4
Atom  13C    basis set group =>   4
Atom  14C    basis set group =>   4
Atom  15C    basis set group =>   4
Atom  16C    basis set group =>   4
Atom  17C    basis set group =>   4
Atom  18C    basis set group =>   4
Atom  19C    basis set group =>   4
Atom  20C    basis set group =>   4
Atom  21O    basis set group =>   3
Atom  22H    basis set group =>   5
Atom  23H    basis set group =>   5
Atom  24H    basis set group =>   5
Atom  25H    basis set group =>   5
Atom  26H    basis set group =>   5
Atom  27H    basis set group =>   5
Atom  28H    basis set group =>   5
Atom  29H    basis set group =>   5
Atom  30H    basis set group =>   5
Atom  31H    basis set group =>   5
Atom  32H    basis set group =>   5


           ************************************************************
           *        Program running with 4 parallel MPI-processes     *
           *              working on a common directory               *
           ************************************************************
------------------------------------------------------------------------------
                           ORCA GTO INTEGRAL CALCULATION
                           -- RI-GTO INTEGRALS CHOSEN --
------------------------------------------------------------------------------
------------------------------------------------------------------------------
                   ___                                                        
                  /   \      - P O W E R E D   B Y -                         
                 /     \                                                     
                 |  |  |   _    _      __       _____    __    __             
                 |  |  |  | |  | |    /  \     |  _  \  |  |  /  |          
                  \  \/   | |  | |   /    \    | | | |  |  | /  /          
                 / \  \   | |__| |  /  /\  \   | |_| |  |  |/  /          
                |  |  |   |  __  | /  /__\  \  |    /   |      \           
                |  |  |   | |  | | |   __   |  |    \   |  |\   \          
                \     /   | |  | | |  |  |  |  | |\  \  |  | \   \       
                 \___/    |_|  |_| |__|  |__|  |_| \__\ |__|  \__/        
                                                                              
                      - O R C A' S   B I G   F R I E N D -                    
                                      &                                       
                       - I N T E G R A L  F E E D E R -                       
                                                                              
 v1 FN, 2020, v2 2021                                                         
------------------------------------------------------------------------------


Reading SHARK input file b3lyp-train-2.SHARKINP.tmp ... ok
----------------------
SHARK INTEGRAL PACKAGE
----------------------

Number of atoms                             ...     33
Number of basis functions                   ...   1298
Number of shells                            ...    506
Maximum angular momentum                    ...      3
Integral batch strategy                     ... SHARK/LIBINT Hybrid
RI-J (if used) integral strategy            ... SPLIT-RIJ (Revised 2003 algorithm where possible)
Printlevel                                  ...      1
Contraction scheme used                     ... PARTIAL GENERAL contraction
Coulomb Range Separation                    ... NOT USED
Exchange Range Separation                   ... NOT USED
Finite Nucleus Model                        ... NOT USED
Auxiliary Coulomb fitting basis             ... AVAILABLE
   # of basis functions in Aux-J            ...   2068
   # of shells in Aux-J                     ...    660
   Maximum angular momentum in Aux-J        ...      4
Auxiliary J/K fitting basis                 ... NOT available
Auxiliary Correlation fitting basis         ... AVAILABLE
   # of basis functions in Aux-C            ...   2662
   # of shells in Aux-C                     ...    726
   Maximum angular momentum in Aux-C        ...      4
Auxiliary 'external' fitting basis          ... NOT available
Integral threshold                          ...     2.500000e-11
Primitive cut-off                           ...     2.500000e-12
Primitive pair pre-selection threshold      ...     2.500000e-12

Calculating pre-screening integrals         ... done (  0.3 sec) Dimension = 506
Calculating pre-screening integrals (ORCA)  ... done (  0.7 sec) Dimension = 374
Organizing shell pair data                  ... done (  0.9 sec)
Shell pair information
Total number of shell pairs                 ...    128271
Shell pairs after pre-screening             ...     73875
Total number of primitive shell pairs       ...    163977
Primitive shell pairs kept                  ...     85539
          la=0 lb=0:  16510 shell pairs
          la=1 lb=0:  19109 shell pairs
          la=1 lb=1:   4628 shell pairs
          la=2 lb=0:  12291 shell pairs
          la=2 lb=1:   6128 shell pairs
          la=2 lb=2:   2100 shell pairs
          la=3 lb=0:   6714 shell pairs
          la=3 lb=1:   3428 shell pairs
          la=3 lb=2:   2307 shell pairs
          la=3 lb=3:    660 shell pairs

Calculating one electron integrals          ... done (  0.2 sec)
Calculating RI/J V-Matrix + Cholesky decomp.... done (  1.6 sec)
Calculating RI/C V-Matrix + Cholesky decomp.... done (  0.7 sec)
Calculating Nuclear repulsion               ... done (  0.0 sec) ENN=   1537.737335514157 Eh

SHARK setup successfully completed in   6.5 seconds

Maximum memory used throughout the entire GTOINT-calculation: 122.5 MB


           ************************************************************
           *        Program running with 4 parallel MPI-processes     *
           *              working on a common directory               *
           ************************************************************
-------------------------------------------------------------------------------
                                 ORCA SCF
-------------------------------------------------------------------------------

------------
SCF SETTINGS
------------
Hamiltonian:
 Density Functional     Method          .... DFT(GTOs)
 Exchange Functional    Exchange        .... B88
   X-Alpha parameter    XAlpha          ....  0.666667
   Becke's b parameter  XBeta           ....  0.004200
 Correlation Functional Correlation     .... LYP
 LDA part of GGA corr.  LDAOpt          .... VWN-5
 Gradients option       PostSCFGGA      .... off
 Hybrid DFT is turned on
   Fraction HF Exchange ScalHFX         ....  0.200000
   Scaling of DF-GGA-X  ScalDFX         ....  0.720000
   Scaling of DF-GGA-C  ScalDFC         ....  0.810000
   Scaling of DF-LDA-C  ScalLDAC        ....  1.000000
   Perturbative correction              ....  0.000000
   Density functional embedding theory  .... OFF
   NL short-range parameter             ....  4.800000
 RI-approximation to the Coulomb term is turned on
   Number of AuxJ basis functions       .... 2068
   RIJ-COSX (HFX calculated with COS-X)).... on


General Settings:
 Integral files         IntName         .... b3lyp-train-2
 Hartree-Fock type      HFTyp           .... RHF
 Total Charge           Charge          ....    0
 Multiplicity           Mult            ....    1
 Number of Electrons    NEL             ....  152
 Basis Dimension        Dim             .... 1166
 Nuclear Repulsion      ENuc            ....   1537.7373355142 Eh

Convergence Acceleration:
 DIIS                   CNVDIIS         .... on
   Start iteration      DIISMaxIt       ....    12
   Startup error        DIISStart       ....  0.200000
   # of expansion vecs  DIISMaxEq       ....     5
   Bias factor          DIISBfac        ....   1.050
   Max. coefficient     DIISMaxC        ....  10.000
 Trust-Rad. Augm. Hess. CNVTRAH         .... auto
   Auto Start mean grad. ratio tolernc. ....  1.125000
   Auto Start start iteration           ....    20
   Auto Start num. interpolation iter.  ....    10
   Max. Number of Micro iterations      ....    16
   Max. Number of Macro iterations      .... Maxiter - #DIIS iter
   Number of Davidson start vectors     ....     2
   Converg. threshold I  (grad. norm)   ....   1.000e-05
   Converg. threshold II (energy diff.) ....   1.000e-08
   Grad. Scal. Fac. for Micro threshold ....   0.100
   Minimum threshold for Micro iter.    ....   0.010
   NR start threshold (gradient norm)   ....   0.001
   Initial trust radius                 ....   0.400
   Minimum AH scaling param. (alpha)    ....   1.000
   Maximum AH scaling param. (alpha)    .... 1000.000
   Orbital update algorithm             .... Taylor
   White noise on init. David. guess    .... on
   Maximum white noise                  ....   0.010
   Quad. conv. algorithm                .... NR
 SOSCF                  CNVSOSCF        .... on
   Start iteration      SOSCFMaxIt      ....   150
   Startup grad/error   SOSCFStart      ....  0.003300
 Level Shifting         CNVShift        .... on
   Level shift para.    LevelShift      ....    0.2500
   Turn off err/grad.   ShiftErr        ....    0.0010
 Zerner damping         CNVZerner       .... off
 Static damping         CNVDamp         .... on
   Fraction old density DampFac         ....    0.7000
   Max. Damping (<1)    DampMax         ....    0.9800
   Min. Damping (>=0)   DampMin         ....    0.0000
   Turn off err/grad.   DampErr         ....    0.1000
 Fernandez-Rico         CNVRico         .... off

SCF Procedure:
 Maximum # iterations   MaxIter         ....   125
 SCF integral mode      SCFMode         .... Direct
   Integral package                     .... SHARK and LIBINT hybrid scheme
 Reset frequency        DirectResetFreq ....    20
 Integral Threshold     Thresh          ....  2.500e-11 Eh
 Primitive CutOff       TCut            ....  2.500e-12 Eh

Convergence Tolerance:
 Convergence Check Mode ConvCheckMode   .... Total+1el-Energy
 Convergence forced     ConvForced      .... 0
 Energy Change          TolE            ....  1.000e-08 Eh
 1-El. energy change                    ....  1.000e-05 Eh
 Orbital Gradient       TolG            ....  1.000e-05
 Orbital Rotation angle TolX            ....  1.000e-05
 DIIS Error             TolErr          ....  5.000e-07


Diagonalization of the overlap matrix:
Smallest eigenvalue                        ... 2.158e-07
Time for diagonalization                   ...    0.363 sec
Threshold for overlap eigenvalues          ... 1.000e-08
Number of eigenvalues below threshold      ... 0
Time for construction of square roots      ...    0.247 sec
Total time needed                          ...    0.617 sec

Time for model grid setup =    0.963 sec

------------------------------
INITIAL GUESS: MODEL POTENTIAL
------------------------------
Loading Hartree-Fock densities                     ... done
Calculating cut-offs                               ... done
Initializing the effective Hamiltonian             ... done
Setting up the integral package (SHARK)            ... done
Starting the Coulomb interaction                   ... done (   2.9 sec)
Reading the grid                                   ... done
Mapping shells                                     ... done
Starting the XC term evaluation                    ... done (   2.3 sec)
  promolecular density results
     # of electrons  =    151.995771397
     EX              =   -131.092603519
     EC              =     -5.252719159
     EX+EC           =   -136.345322678
Transforming the Hamiltonian                       ... done (   2.6 sec)
Diagonalizing the Hamiltonian                      ... done (   0.4 sec)
Back transforming the eigenvectors                 ... done (   0.1 sec)
Now organizing SCF variables                       ... done
                      ------------------
                      INITIAL GUESS DONE (   9.4 sec)
                      ------------------
-------------------
DFT GRID GENERATION
-------------------

General Integration Accuracy     IntAcc      ... 4.388
Radial Grid Type                 RadialGrid  ... OptM3 with GC (2021)
Angular Grid (max. ang.)         AngularGrid ... 4 (Lebedev-302)
Angular grid pruning method      GridPruning ... 4 (adaptive)
Weight generation scheme         WeightScheme... Becke
Basis function cutoff            BFCut       ... 1.0000e-11
Integration weight cutoff        WCut        ... 1.0000e-14
Angular grids for H and He will be reduced by one unit
Partially contracted basis set               ... off
Rotationally invariant grid construction     ... off

Total number of grid points                  ...   173128
Total number of batches                      ...     2721
Average number of points per batch           ...       63
Average number of grid points per atom       ...     5246
Time for grid setup =    3.186 sec

--------------------
COSX GRID GENERATION
--------------------

GRIDX 1
-------
General Integration Accuracy     IntAcc      ... 3.816
Radial Grid Type                 RadialGrid  ... OptM3 with GC (2021)
Angular Grid (max. ang.)         AngularGrid ... 1 (Lebedev-50)
Angular grid pruning method      GridPruning ... 4 (adaptive)
Weight generation scheme         WeightScheme... Becke
Basis function cutoff            BFCut       ... 1.0000e-11
Integration weight cutoff        WCut        ... 1.0000e-14
Angular grids for H and He will be reduced by one unit
Partially contracted basis set               ... on
Rotationally invariant grid construction     ... off

Total number of grid points                  ...    22045
Total number of batches                      ...      361
Average number of points per batch           ...       61
Average number of grid points per atom       ...      668
UseSFitting                                  ... on

GRIDX 2
-------
General Integration Accuracy     IntAcc      ... 4.020
Radial Grid Type                 RadialGrid  ... OptM3 with GC (2021)
Angular Grid (max. ang.)         AngularGrid ... 2 (Lebedev-110)
Angular grid pruning method      GridPruning ... 4 (adaptive)
Weight generation scheme         WeightScheme... Becke
Basis function cutoff            BFCut       ... 1.0000e-11
Integration weight cutoff        WCut        ... 1.0000e-14
Angular grids for H and He will be reduced by one unit
Partially contracted basis set               ... on
Rotationally invariant grid construction     ... off

Total number of grid points                  ...    53820
Total number of batches                      ...      859
Average number of points per batch           ...       62
Average number of grid points per atom       ...     1631
UseSFitting                                  ... on

GRIDX 3
-------
General Integration Accuracy     IntAcc      ... 4.338
Radial Grid Type                 RadialGrid  ... OptM3 with GC (2021)
Angular Grid (max. ang.)         AngularGrid ... 3 (Lebedev-194)
Angular grid pruning method      GridPruning ... 4 (adaptive)
Weight generation scheme         WeightScheme... Becke
Basis function cutoff            BFCut       ... 1.0000e-11
Integration weight cutoff        WCut        ... 1.0000e-14
Angular grids for H and He will be reduced by one unit
Partially contracted basis set               ... on
Rotationally invariant grid construction     ... off

Total number of grid points                  ...   116159
Total number of batches                      ...     1831
Average number of points per batch           ...       63
Average number of grid points per atom       ...     3520
UseSFitting                                  ... on

Time for X-Grid setup             =    8.083 sec


--------------------
CPCM SOLVATION MODEL
--------------------
CPCM parameters:
  Epsilon                                         ...       8.9300
  Refrac                                          ...       1.4242
  Rsolv                                           ...       1.3000
  Surface type                                    ... GAUSSIAN VDW
  Epsilon function type                           ...         CPCM
Solvent:                                     ... DICHLOROMETHANE
SMD-CDS solvent descriptors:
  Soln                                       ...    1.4242
  Soln25                                     ...    1.4212
  Sola                                       ...    0.1000
  Solb                                       ...    0.0500
  Solg                                       ...   39.1500
  Solc                                       ...    0.0000
  Solh                                       ...    0.6670
Radii:
 Radius for F  used is    3.2692 Bohr (=   1.7300 Ang.)
 Radius for B  used is    3.6283 Bohr (=   1.9200 Ang.)
 Radius for O  used is    3.9949 Bohr (=   2.1140 Ang.)
 Radius for C  used is    3.4960 Bohr (=   1.8500 Ang.)
 Radius for H  used is    2.2677 Bohr (=   1.2000 Ang.)
Calculating surface                               ...        done! (  0.0s)
GEPOL surface points                              ...         1896
GEPOL Volume                                      ...    2024.1645
GEPOL Surface-area                                ...    1130.6549
Calculating surface distance matrix               ...        done! (  0.1s)
Performing Cholesky decomposition & store         ...        done! (  0.2s)
Overall time for CPCM initialization              ...                 0.3s
 re-compute Schwartz prescreening matrix in partically contracted basis (1) ...done (   0.289 sec)
--------------
SCF ITERATIONS
--------------
ITER       Energy         Delta-E        Max-DP      RMS-DP      [F,P]     Damp
               ***  Starting incremental Fock matrix formation  ***
  0  -1028.9066084703   0.000000000000 0.72265357  0.00176426  0.2294426 0.7000
  1  -1029.1274542061  -0.220845735827 0.52849038  0.00126388  0.0984053 0.7000
                               ***Turning on DIIS***
  2  -1029.2208799323  -0.093425726128 1.29432409  0.00278779  0.0423603 0.0000
  3  -1029.3657431466  -0.144863214337 0.07135095  0.00053331  0.0481430 0.0000
  4  -1029.3959739346  -0.030230787970 0.02069095  0.00019227  0.0103135 0.0000
  5  -1029.3974259513  -0.001452016747 0.02000767  0.00008388  0.0060961 0.0000
                      *** Initiating the SOSCF procedure ***
                           *** Shutting down DIIS ***
                      *** Re-Reading the Fockian *** 
                      *** Removing any level shift *** 
ITER      Energy       Delta-E        Grad      Rot      Max-DP    RMS-DP
  6  -1029.39756203  -0.0001360759  0.000230  0.000230  0.015620  0.000075
               *** Restarting incremental Fock matrix formation ***
  7  -1029.39759078  -0.0000287480  0.000148  0.000768  0.069869  0.000499
  8  -1029.39759254  -0.0000017647  0.000125  0.000324  0.021380  0.000134
  9  -1029.39759347  -0.0000009350  0.000048  0.000157  0.089784  0.000193
 10  -1029.39759367  -0.0000001976  0.000026  0.000067  0.043445  0.000103
 11  -1029.39759371  -0.0000000336  0.000015  0.000032  0.061675  0.000129
 12  -1029.39759372  -0.0000000156  0.000006  0.000011  0.014080  0.000057
 13  -1029.39759368   0.0000000377  0.000005  0.000010  0.018523  0.000074
 14  -1029.39759366   0.0000000224  0.000003  0.000010  0.041161  0.000121
 15  -1029.39759366   0.0000000064  0.000003  0.000007  0.047192  0.000138
                  ***Gradient check signals convergence***
              ***Rediagonalizing the Fockian in SOSCF/NRSCF***

               *****************************************************
               *                     SUCCESS                       *
               *           SCF CONVERGED AFTER  16 CYCLES          *
               *****************************************************

Old exchange energy                            =    -26.545736084 Eh
New exchange energy                            =    -26.545736845 Eh
Exchange energy change after final integration =     -0.000000761 Eh
Total energy after final integration           =  -1029.397594436 Eh
Final COS-X integration done in                =   158.280 sec

SMD CDS free energy correction energy :                -6.50691     Kcal/mol
Total Energy after SMD CDS correction =             -1029.407963864 Eh

----------------
TOTAL SCF ENERGY
----------------

Total Energy       :        -1029.40796386 Eh          -28011.61478 eV

Components:
Nuclear Repulsion  :         1537.73733551 Eh           41843.96021 eV
Electronic Energy  :        -2567.14529938 Eh          -69855.57498 eV
One Electron Energy:        -4458.85715135 Eh         -121331.67147 eV
Two Electron Energy:         1891.71185197 Eh           51476.09649 eV
Max COSX asymmetry :            0.00003863 Eh               0.00105 eV
CPCM Dielectric    :           -0.02731920 Eh              -0.74339 eV
SMD CDS (Gcds)     :           -0.01036943 Eh              -0.28217 eV

Virial components:
Potential Energy   :        -2053.56041066 Eh          -55880.21967 eV
Kinetic Energy     :         1024.15244679 Eh           27868.60489 eV
Virial Ratio       :            2.00513158


DFT components:
N(Alpha)           :       76.000042530758 electrons
N(Beta)            :       76.000042530758 electrons
N(Total)           :      152.000085061516 electrons
E(X)               :     -105.551897358930 Eh       
E(C)               :       -6.195451685163 Eh       
E(XC)              :     -111.747349044093 Eh       
DFET-embed. en.    :        0.000000000000 Eh       
CPCM Solvation Model Properties:
Surface-charge          :           -0.05861318
Charge-correction       :            0.00013765 Eh               0.00375 eV
Free-energy (cav+disp)  :           -0.01036943 Eh              -0.28217 eV

---------------
SCF CONVERGENCE
---------------

  Last Energy change         ...   -2.0280e-08  Tolerance :   1.0000e-08
  Last MAX-Density change    ...    7.1054e-15  Tolerance :   1.0000e-07
  Last RMS-Density change    ...    2.0097e-17  Tolerance :   5.0000e-09
  Last Orbital Gradient      ...    2.0709e-06  Tolerance :   1.0000e-05
  Last Orbital Rotation      ...    1.1822e-05  Tolerance :   1.0000e-05

             **** THE GBW FILE WAS UPDATED (b3lyp-train-2.gbw) ****
             **** DENSITY b3lyp-train-2.scfp WAS UPDATED ****
             **** ENERGY FILE WAS UPDATED (b3lyp-train-2.en.tmp) ****
             **** THE GBW FILE WAS UPDATED (b3lyp-train-2.gbw) ****
             **** DENSITY b3lyp-train-2.scfp WAS UPDATED ****
----------------
ORBITAL ENERGIES
----------------

  NO   OCC          E(Eh)            E(eV) 
   0   2.0000     -24.651643      -670.8053 
   1   2.0000     -24.650949      -670.7864 
   2   2.0000     -19.175287      -521.7861 
   3   2.0000     -19.172910      -521.7214 
   4   2.0000     -10.302074      -280.3337 
   5   2.0000     -10.289034      -279.9788 
   6   2.0000     -10.211550      -277.8704 
   7   2.0000     -10.209609      -277.8176 
   8   2.0000     -10.199392      -277.5396 
   9   2.0000     -10.193272      -277.3730 
  10   2.0000     -10.190721      -277.3036 
  11   2.0000     -10.190297      -277.2921 
  12   2.0000     -10.189579      -277.2725 
  13   2.0000     -10.187744      -277.2226 
  14   2.0000     -10.186444      -277.1872 
  15   2.0000     -10.186368      -277.1852 
  16   2.0000     -10.185767      -277.1688 
  17   2.0000     -10.183189      -277.0987 
  18   2.0000     -10.182935      -277.0917 
  19   2.0000     -10.181858      -277.0624 
  20   2.0000     -10.181281      -277.0467 
  21   2.0000      -6.852678      -186.4709 
  22   2.0000      -1.200068       -32.6555 
  23   2.0000      -1.164593       -31.6902 
  24   2.0000      -1.107565       -30.1384 
  25   2.0000      -1.081453       -29.4278 
  26   2.0000      -0.880921       -23.9711 
  27   2.0000      -0.876423       -23.8487 
  28   2.0000      -0.827513       -22.5178 
  29   2.0000      -0.803739       -21.8708 
  30   2.0000      -0.779028       -21.1984 
  31   2.0000      -0.762153       -20.7392 
  32   2.0000      -0.760924       -20.7058 
  33   2.0000      -0.750207       -20.4142 
  34   2.0000      -0.697884       -18.9904 
  35   2.0000      -0.666831       -18.1454 
  36   2.0000      -0.633748       -17.2452 
  37   2.0000      -0.619625       -16.8609 
  38   2.0000      -0.617701       -16.8085 
  39   2.0000      -0.606005       -16.4902 
  40   2.0000      -0.579014       -15.7558 
  41   2.0000      -0.559406       -15.2222 
  42   2.0000      -0.548895       -14.9362 
  43   2.0000      -0.524244       -14.2654 
  44   2.0000      -0.516343       -14.0504 
  45   2.0000      -0.515461       -14.0264 
  46   2.0000      -0.495722       -13.4893 
  47   2.0000      -0.486236       -13.2312 
  48   2.0000      -0.475945       -12.9511 
  49   2.0000      -0.472124       -12.8471 
  50   2.0000      -0.462095       -12.5742 
  51   2.0000      -0.450354       -12.2547 
  52   2.0000      -0.443096       -12.0573 
  53   2.0000      -0.440149       -11.9771 
  54   2.0000      -0.439684       -11.9644 
  55   2.0000      -0.433020       -11.7831 
  56   2.0000      -0.431612       -11.7448 
  57   2.0000      -0.418371       -11.3845 
  58   2.0000      -0.409827       -11.1519 
  59   2.0000      -0.401444       -10.9238 
  60   2.0000      -0.394622       -10.7382 
  61   2.0000      -0.387664       -10.5489 
  62   2.0000      -0.384625       -10.4662 
  63   2.0000      -0.375501       -10.2179 
  64   2.0000      -0.367496       -10.0001 
  65   2.0000      -0.366217        -9.9653 
  66   2.0000      -0.358718        -9.7612 
  67   2.0000      -0.352085        -9.5807 
  68   2.0000      -0.333793        -9.0830 
  69   2.0000      -0.331756        -9.0275 
  70   2.0000      -0.301619        -8.2075 
  71   2.0000      -0.289391        -7.8747 
  72   2.0000      -0.270918        -7.3721 
  73   2.0000      -0.269017        -7.3203 
  74   2.0000      -0.268790        -7.3142 
  75   2.0000      -0.242911        -6.6100 
  76   0.0000      -0.109531        -2.9805 
  77   0.0000      -0.049652        -1.3511 
  78   0.0000      -0.023034        -0.6268 
  79   0.0000      -0.021727        -0.5912 
  80   0.0000      -0.009421        -0.2564 
  81   0.0000      -0.005151        -0.1402 
  82   0.0000       0.002236         0.0609 
  83   0.0000       0.010559         0.2873 
  84   0.0000       0.014443         0.3930 
  85   0.0000       0.020007         0.5444 
  86   0.0000       0.021451         0.5837 
  87   0.0000       0.024181         0.6580 
  88   0.0000       0.029152         0.7933 
  89   0.0000       0.030805         0.8383 
  90   0.0000       0.035013         0.9528 
  91   0.0000       0.037510         1.0207 
  92   0.0000       0.042629         1.1600 
  93   0.0000       0.044325         1.2062 
  94   0.0000       0.045058         1.2261 
  95   0.0000       0.047599         1.2952 
  96   0.0000       0.049900         1.3578 
  97   0.0000       0.056240         1.5304 
  98   0.0000       0.057797         1.5727 
  99   0.0000       0.065332         1.7778 
 100   0.0000       0.066240         1.8025 
 101   0.0000       0.068701         1.8694 
 102   0.0000       0.074897         2.0381 
 103   0.0000       0.077496         2.1088 
 104   0.0000       0.078335         2.1316 
 105   0.0000       0.084596         2.3020 
 106   0.0000       0.090090         2.4515 
 107   0.0000       0.092562         2.5188 
 108   0.0000       0.095192         2.5903 
 109   0.0000       0.097071         2.6414 
 110   0.0000       0.099123         2.6973 
 111   0.0000       0.102178         2.7804 
 112   0.0000       0.104300         2.8381 
 113   0.0000       0.108681         2.9574 
 114   0.0000       0.110166         2.9978 
 115   0.0000       0.112767         3.0685 
 116   0.0000       0.115010         3.1296 
 117   0.0000       0.118839         3.2338 
 118   0.0000       0.120142         3.2692 
 119   0.0000       0.122148         3.3238 
 120   0.0000       0.122857         3.3431 
 121   0.0000       0.126040         3.4297 
 122   0.0000       0.128395         3.4938 
 123   0.0000       0.129632         3.5275 
 124   0.0000       0.134023         3.6470 
 125   0.0000       0.137196         3.7333 
 126   0.0000       0.137923         3.7531 
 127   0.0000       0.138311         3.7636 
 128   0.0000       0.141997         3.8639 
 129   0.0000       0.144337         3.9276 
 130   0.0000       0.145528         3.9600 
 131   0.0000       0.147582         4.0159 
 132   0.0000       0.148336         4.0364 
 133   0.0000       0.150896         4.1061 
 134   0.0000       0.151693         4.1278 
 135   0.0000       0.152867         4.1597 
 136   0.0000       0.155866         4.2413 
 137   0.0000       0.161888         4.4052 
 138   0.0000       0.163556         4.4506 
 139   0.0000       0.165486         4.5031 
 140   0.0000       0.168245         4.5782 
 141   0.0000       0.171032         4.6540 
 142   0.0000       0.176202         4.7947 
 143   0.0000       0.178495         4.8571 
 144   0.0000       0.180715         4.9175 
 145   0.0000       0.182853         4.9757 
 146   0.0000       0.185323         5.0429 
 147   0.0000       0.186811         5.0834 
 148   0.0000       0.191179         5.2023 
 149   0.0000       0.195033         5.3071 
 150   0.0000       0.196635         5.3507 
 151   0.0000       0.198348         5.3973 
 152   0.0000       0.201840         5.4923 
 153   0.0000       0.203816         5.5461 
 154   0.0000       0.207355         5.6424 
 155   0.0000       0.207630         5.6499 
[...]

Total time                  ....     674.475 sec
Sum of individual times     ....     667.056 sec  ( 98.9%)

Fock matrix formation       ....     649.197 sec  ( 96.3%)
  Split-RI-J                ....      36.877 sec  (  5.7% of F)
  Chain of spheres X        ....     545.644 sec  ( 84.0% of F)
  XC integration            ....      37.550 sec  (  5.8% of F)
    Basis function eval.    ....       7.127 sec  ( 19.0% of XC)
    Density eval.           ....      19.949 sec  ( 53.1% of XC)
    XC-Functional eval.     ....       0.451 sec  (  1.2% of XC)
    XC-Potential eval.      ....       8.293 sec  ( 22.1% of XC)
Diagonalization             ....       0.570 sec  (  0.1%)
Density matrix formation    ....       0.152 sec  (  0.0%)
Population analysis         ....       0.777 sec  (  0.1%)
Initial guess               ....       1.301 sec  (  0.2%)
Orbital Transformation      ....       0.000 sec  (  0.0%)
Orbital Orthonormalization  ....       1.213 sec  (  0.2%)
DIIS solution               ....       0.247 sec  (  0.0%)
SOSCF solution              ....       2.620 sec  (  0.4%)
Grid generation             ....      12.191 sec  (  1.8%)

Maximum memory used throughout the entire SCF-calculation: 318.9 MB


           ************************************************************
           *        Program running with 4 parallel MPI-processes     *
           *              working on a common directory               *
           ************************************************************
------------------------------------------------------------------------------
                        ORCA TD-DFT/TDA CALCULATION
------------------------------------------------------------------------------

Input orbitals are from        ... b3lyp-train-2_job2.gbw
CI-vector output               ... b3lyp-train-2_job2.cis
Tamm-Dancoff approximation     ... operative
CIS-Integral strategy          ... AO-integrals
Integral handling              ... AO integral Direct
Max. core memory used          ... 4000 MB
Reference state                ... RHF
Generation of triplets         ... off
Follow IRoot                   ... off
Number of operators            ... 1
Orbital ranges used for CIS calculation:
 Operator 0:  Orbitals  22... 75  to  76...1165
XAS localization array:
 Operator 0:  Orbitals  -1... -1

-------------------
XC-INTEGRATION GRID
-------------------

General Integration Accuracy     IntAcc      ... 3.467
Radial Grid Type                 RadialGrid  ... OptM3 with GC (2021)
Angular Grid (max. ang.)         AngularGrid ... 1 (Lebedev-50)
Angular grid pruning method      GridPruning ... 4 (adaptive)
Weight generation scheme         WeightScheme... Becke
Basis function cutoff            BFCut       ... 1.0000e-11
Integration weight cutoff        WCut        ... 1.0000e-14
Angular grids for H and He will be reduced by one unit
Partially contracted basis set               ... off
Rotationally invariant grid construction     ... off

Total number of grid points                  ...    26262
Total number of batches                      ...      424
Average number of points per batch           ...       61
Average number of grid points per atom       ...      796

---------------------
COSX-INTEGRATION GRID
---------------------

General Integration Accuracy     IntAcc      ... 3.067
Radial Grid Type                 RadialGrid  ... OptM3 with GC (2021)
Angular Grid (max. ang.)         AngularGrid ... 1 (Lebedev-50)
Angular grid pruning method      GridPruning ... 4 (adaptive)
Weight generation scheme         WeightScheme... Becke
Basis function cutoff            BFCut       ... 1.0000e-11
Integration weight cutoff        WCut        ... 1.0000e-14
Angular grids for H and He will be reduced by one unit
Partially contracted basis set               ... on
Rotationally invariant grid construction     ... off

Total number of grid points                  ...    11810
Total number of batches                      ...      199
Average number of points per batch           ...       59
Average number of grid points per atom       ...      358

---------------
TD-DFT XC SETUP
---------------

DFT calculation                         ... on
Name of the grid file                   ... b3lyp-train-2_job2.grid_cis.tmp
Exchange functional (TD-DFT)            ... B88
   X-Alpha parameter    XAlpha (TD-DFT) ...  0.666667
   Becke's b parameter  XBeta (TD-DFT)  ...  0.004200
Correlation functional (TD-DFT)         ... LYP
 LDA part of GGA corr.  LDAOpt (TD-DFT) ... VWN-5
Hybrid DFT                              ... on
   Exchange mixing (TD-DFT)             ...  0.200
   GGA exch. scaling (TD-DFT)           ...  0.720
   GGA corr. scaling (TD-DFT)           ...  0.810

Building densities             ... done
Calculating rho(r) on the grid ... done
Building xc-kernel on the grid ... done
                    *** TD-DFT CALCULATION INITIALIZED ***

---------------------------------
    LR-CPCM (non-equilibrium)
---------------------------------

Setting up LR-CPCM             ... done

------------------------
DAVIDSON-DIAGONALIZATION
------------------------

Dimension of the eigenvalue problem            ...  58860
Number of roots to be determined               ...     10
Maximum size of the expansion space            ...     70
Maximum number of iterations                   ...    100
Convergence tolerance for the residual         ...    1.000e-06
Convergence tolerance for the energies         ...    1.000e-06
Orthogonality tolerance                        ...    1.000e-14
Level Shift                                    ...    0.000e+00
Constructing the preconditioner                ... o.k.
Building the initial guess                     ... o.k.
Number of trial vectors determined             ...     70


                       ****Iteration    0****

   Memory handling for direct AO based CIS:
   Memory per vector needed      ...    62 MB
   Memory needed                 ...  1867 MB
   Memory available              ...  4000 MB
   Number of vectors per batch   ...    64
   Number of batches             ...     1
   Time for densities:            1.012
   Time for RI-J (Direct):       24.009
   Time for K (COSX):           149.634
   Time for XC-Integration:      46.604
   Time for LR-CPCM terms:       25.917
   Time for Sigma-Completion:     0.716
   Size of expansion space: 30
   Lowest Energy          :     0.126976311899
   Maximum Energy change  :     0.199726989783 (vector 9)
   Maximum residual norm  :     0.015736521489

                       ****Iteration    1****
   Time for densities:            0.300
   Time for RI-J (Direct):       13.572
   Time for K (COSX):            48.266
   Time for XC-Integration:      17.731
   Time for LR-CPCM terms:       11.776
   Time for Sigma-Completion:     0.247
   Size of expansion space: 40
   Lowest Energy          :     0.117887923039
   Maximum Energy change  :     0.011045362974 (vector 5)
   Maximum residual norm  :     0.001122439734

                       ****Iteration    2****
   Time for densities:            0.301
   Time for RI-J (Direct):       13.612
   Time for K (COSX):            48.323
   Time for XC-Integration:      18.838
   Time for LR-CPCM terms:       11.705
   Time for Sigma-Completion:     0.231
   Size of expansion space: 50
   Lowest Energy          :     0.117524475286
   Maximum Energy change  :     0.001235053935 (vector 7)
   Maximum residual norm  :     0.000163001073

                       ****Iteration    3****
   Time for densities:            0.294
   Time for RI-J (Direct):       13.643
   Time for K (COSX):            48.426
   Time for XC-Integration:      19.083
   Time for LR-CPCM terms:       11.858
   Time for Sigma-Completion:     0.230
   Size of expansion space: 60
   Lowest Energy          :     0.117487472298
   Maximum Energy change  :     0.000258364451 (vector 7)
   Maximum residual norm  :     0.000012309389

                       ****Iteration    4****
   Time for densities:            0.285
   Time for RI-J (Direct):       13.531
   Time for K (COSX):            48.481
   Time for XC-Integration:      19.277
   Time for LR-CPCM terms:       12.024
   Time for Sigma-Completion:     0.239
   Size of expansion space: 70
   Lowest Energy          :     0.117486319930
   Maximum Energy change  :     0.000014689457 (vector 7)
   Maximum residual norm  :     0.000001355069
   Rebuilding the expansion space

                       ****Iteration    5****
   Time for densities:            0.576
   Time for RI-J (Direct):       18.170
   Time for K (COSX):            91.283
   Time for XC-Integration:      36.098
   Time for LR-CPCM terms:       19.187
   Time for Sigma-Completion:     0.455
   Size of expansion space: 20
   Lowest Energy          :     0.117486119416
   Maximum Energy change  :     0.000001868780 (vector 7)
   Maximum residual norm  :     0.000000160219

      *** CONVERGENCE OF RESIDUAL NORM REACHED ***

Storing the converged CI vectors               ... b3lyp-train-2_job2.cis1

                 *** DAVIDSON DONE ***

Total time for solving the CIS problem:   788.592sec

------------------------------------
TD-DFT/TDA EXCITED STATES (SINGLETS)
------------------------------------

the weight of the individual excitations are printed if larger than 1.0e-02

STATE  1:  E=   0.117486 au      3.197 eV    25785.2 cm**-1 <S**2> =   0.000000
    75a ->  76a  :     0.971591 (c= -0.98569294)

STATE  2:  E=   0.135994 au      3.701 eV    29847.1 cm**-1 <S**2> =   0.000000
    73a ->  76a  :     0.131369 (c=  0.36244923)
    74a ->  76a  :     0.839769 (c=  0.91638890)

STATE  3:  E=   0.139875 au      3.806 eV    30698.9 cm**-1 <S**2> =   0.000000
    72a ->  76a  :     0.957312 (c=  0.97842303)
    73a ->  76a  :     0.014148 (c= -0.11894386)
    75a ->  78a  :     0.015038 (c=  0.12263147)

STATE  4:  E=   0.147163 au      4.004 eV    32298.5 cm**-1 <S**2> =   0.000000
    70a ->  76a  :     0.042417 (c=  0.20595354)
    72a ->  76a  :     0.012890 (c= -0.11353361)
    73a ->  76a  :     0.764677 (c= -0.87445811)
    74a ->  76a  :     0.118611 (c=  0.34439902)
    75a ->  77a  :     0.034702 (c=  0.18628525)

STATE  5:  E=   0.150617 au      4.099 eV    33056.7 cm**-1 <S**2> =   0.000000
    70a ->  76a  :     0.925755 (c= -0.96216155)
    70a ->  77a  :     0.018415 (c= -0.13570256)
    73a ->  76a  :     0.034403 (c= -0.18548160)

STATE  6:  E=   0.168454 au      4.584 eV    36971.3 cm**-1 <S**2> =   0.000000
    71a ->  76a  :     0.909853 (c= -0.95386230)
    73a ->  77a  :     0.021869 (c= -0.14788204)
    75a ->  80a  :     0.015583 (c=  0.12483083)

STATE  7:  E=   0.177722 au      4.836 eV    39005.4 cm**-1 <S**2> =   0.000000
    68a ->  76a  :     0.433011 (c=  0.65803588)
    69a ->  76a  :     0.511318 (c=  0.71506493)
    75a ->  77a  :     0.026115 (c= -0.16160061)

STATE  8:  E=   0.180399 au      4.909 eV    39592.9 cm**-1 <S**2> =   0.000000
    68a ->  76a  :     0.042807 (c= -0.20689830)
    70a ->  85a  :     0.011108 (c= -0.10539562)
    73a ->  76a  :     0.020880 (c= -0.14449818)
    75a ->  77a  :     0.852289 (c= -0.92319513)

STATE  9:  E=   0.188607 au      5.132 eV    41394.4 cm**-1 <S**2> =   0.000000
    72a ->  76a  :     0.014660 (c= -0.12107669)
    72a ->  77a  :     0.458181 (c=  0.67689068)
    72a ->  80a  :     0.030549 (c= -0.17478234)
    73a ->  78a  :     0.032582 (c=  0.18050563)
    75a ->  78a  :     0.407903 (c=  0.63867295)
    75a ->  79a  :     0.018894 (c=  0.13745506)

STATE 10:  E=   0.191142 au      5.201 eV    41950.9 cm**-1 <S**2> =   0.000000
    73a ->  77a  :     0.069451 (c= -0.26353638)
    73a ->  79a  :     0.067872 (c= -0.26052228)
    74a ->  77a  :     0.503626 (c= -0.70966597)
    74a ->  80a  :     0.030491 (c= -0.17461705)
    75a ->  78a  :     0.012313 (c= -0.11096483)
    75a ->  79a  :     0.272998 (c=  0.52249244)
    75a ->  80a  :     0.010755 (c= -0.10370865)


-----------------------------
TD-DFT/TDA-EXCITATION SPECTRA
-----------------------------

Center of mass = (  0.2149,  0.6249,  1.0446)
Calculating the Dipole integrals                  ... done
Transforming integrals                            ... done
Calculating the Linear Momentum integrals         ... done
Transforming integrals                            ... done
Calculating angular momentum integrals            ... done
Transforming integrals                            ... done

-----------------------------------------------------------------------------
         ABSORPTION SPECTRUM VIA TRANSITION ELECTRIC DIPOLE MOMENTS
-----------------------------------------------------------------------------
State   Energy    Wavelength  fosc         T2        TX        TY        TZ  
        (cm-1)      (nm)                 (au**2)    (au)      (au)      (au) 
-----------------------------------------------------------------------------
   1   25785.2    387.8   1.603160887  20.46830  -4.41442  -0.98629  -0.09168
   2   29847.1    335.0   0.024646894   0.27185  -0.34036  -0.29050  -0.26762
   3   30698.9    325.7   0.012819709   0.13748   0.17822  -0.10940  -0.30618
   4   32298.5    309.6   0.163616377   1.66771   0.49310  -0.49297  -1.08699
   5   33056.7    302.5   0.010800968   0.10757   0.15616  -0.10716  -0.26776
   6   36971.3    270.5   0.024620368   0.21923  -0.37891  -0.19618  -0.19279
   7   39005.4    256.4   0.003422250   0.02888  -0.08373  -0.11437  -0.09378
   8   39592.9    252.6   0.142547158   1.18527  -0.43170  -0.58185  -0.81263
   9   41394.4    241.6   0.000035690   0.00028  -0.00188   0.00764   0.01490
  10   41950.9    238.4   0.004105869   0.03222  -0.14980  -0.08779  -0.04553

-----------------------------------------------------------------------------
         ABSORPTION SPECTRUM VIA TRANSITION VELOCITY DIPOLE MOMENTS
-----------------------------------------------------------------------------
State   Energy    Wavelength   fosc        P2         PX        PY        PZ  
        (cm-1)      (nm)                 (au**2)     (au)      (au)      (au) 
-----------------------------------------------------------------------------
   1   25785.2    387.8   0.656062376   0.11562   0.33096   0.07712   0.01177
   2   29847.1    335.0   0.002281274   0.00047   0.01270  -0.01070  -0.01377
   3   30698.9    325.7   0.000958054   0.00020   0.00467  -0.00508  -0.01239
   4   32298.5    309.6   0.021295147   0.00470  -0.02436   0.03612   0.05294
   5   33056.7    302.5   0.001528578   0.00035  -0.00962   0.00093   0.01587
   6   36971.3    270.5   0.002281828   0.00058  -0.01484   0.00909   0.01654
   7   39005.4    256.4   0.001905538   0.00051   0.01798  -0.00321   0.01321
   8   39592.9    252.6   0.070711784   0.01913   0.07360   0.07118   0.09301
   9   41394.4    241.6   0.000055545   0.00002  -0.00252   0.00129   0.00278
  10   41950.9    238.4   0.001205200   0.00035   0.01729   0.00615   0.00296

-------------------------------------------------------------------
                             CD SPECTRUM
-------------------------------------------------------------------
State  Energy     Wavelength     R         MX        MY        MZ   
       (cm-1)       (nm)     (1e40*cgs)   (au)      (au)      (au)  
-------------------------------------------------------------------
   1   25785.2    387.8     -0.82964   0.02977  -0.13881   0.07919
   2   29847.1    335.0     -0.70943  -0.01954   0.05348  -0.02758
   3   30698.9    325.7     -0.03356   0.00840  -0.03644   0.01814
   4   32298.5    309.6     10.93177   0.05291  -0.03084   0.01666
   5   33056.7    302.5     -0.71773  -0.08337  -0.03298  -0.02973
   6   36971.3    270.5     -4.90273  -0.02904   0.20312  -0.09568
   7   39005.4    256.4     -2.26806   0.05971  -0.00023  -0.00173
   8   39592.9    252.6     13.71497  -0.00668  -0.01833  -0.01913
   9   41394.4    241.6      0.04773  -0.01127   0.04409  -0.01722
  10   41950.9    238.4      0.40279  -0.00153  -0.00371  -0.00656

-------------------------------------------------------------------
         CD SPECTRUM VIA TRANSITION VELOCITY DIPOLE MOMENTS        
-------------------------------------------------------------------
State  Energy     Wavelength     R         MX        MY        MZ   
       (cm-1)       (nm)     (1e40*cgs)   (au)      (au)      (au)  
-------------------------------------------------------------------
   1   25785.2    387.8      0.31847   0.02977  -0.13881   0.07919
   2   29847.1    335.0     -1.52831  -0.01954   0.05348  -0.02758
   3   30698.9    325.7     -0.00161   0.00840  -0.03644   0.01814
   4   32298.5    309.6     -4.87248   0.05291  -0.03084   0.01666
   5   33056.7    302.5      0.93530  -0.08337  -0.03298  -0.02973
   6   36971.3    270.5      1.94486  -0.02904   0.20312  -0.09568
   7   39005.4    256.4      2.78853   0.05971  -0.00023  -0.00173
   8   39592.9    252.6     -9.34360  -0.00668  -0.01833  -0.01913
   9   41394.4    241.6      0.09397  -0.01127   0.04409  -0.01722
  10   41950.9    238.4     -0.16954  -0.00153  -0.00371  -0.00656

Total run time:      797.360 sec

           *** ORCA-CIS/TD-DFT FINISHED WITHOUT ERROR ***

Maximum memory used throughout the entire CIS-calculation: 1683.7 MB

-----------------------
CIS/TD-DFT TOTAL ENERGY
-----------------------

    E(SCF)  =  -1029.410424236 Eh
    DE(CIS) =      0.117486119 Eh (Root  1)
    ----------------------------- ---------
    E(tot)  =  -1029.292938117 Eh


-------------------------   --------------------
FINAL SINGLE POINT ENERGY     -1029.292938116649
-------------------------   --------------------


                            ***************************************
                            *     ORCA property calculations      *
                            ***************************************

                                    ---------------------
                                    Active property flags
                                    ---------------------
   (+) Dipole Moment


------------------------------------------------------------------------------
                       ORCA ELECTRIC PROPERTIES CALCULATION
------------------------------------------------------------------------------

Dipole Moment Calculation                       ... on
Quadrupole Moment Calculation                   ... off
Polarizability Calculation                      ... off
GBWName                                         ... b3lyp-train-2_job2.gbw
Electron density                                ... b3lyp-train-2_job2.scfp
The origin for moment calculation is the CENTER OF MASS  = ( 0.214851,  0.624928  1.044610)

-------------
DIPOLE MOMENT
-------------
                                X             Y             Z
Electronic contribution:      3.99957      10.59021      17.09759
Nuclear contribution   :     -4.55920     -13.05651     -21.17181
                        -----------------------------------------
Total Dipole Moment    :     -0.55963      -2.46631      -4.07422
                        -----------------------------------------
Magnitude (a.u.)       :      4.79532
Magnitude (Debye)      :     12.18875



--------------------
Rotational spectrum 
--------------------
 
Rotational constants in cm-1:     0.015678     0.003842     0.003145 
Rotational constants in MHz :   470.016176   115.172556    94.296160 

 Dipole components along the rotational axes: 
x,y,z [a.u.] :    -1.579220    -4.527821     0.006109 
x,y,z [Debye]:    -4.014058   -11.508807     0.015527 

 

Timings for individual modules:

Sum of individual times         ...     1478.500 sec (=  24.642 min)
GTO integral calculation        ...        5.328 sec (=   0.089 min)   0.4 %
SCF iterations                  ...      675.289 sec (=  11.255 min)  45.7 %
CIS module                      ...      797.883 sec (=  13.298 min)  54.0 %



                             ****ORCA TERMINATED NORMALLY****
TOTAL RUN TIME: 0 days 8 hours 45 minutes 11 seconds 370 msec
