
                                 *****************
                                 * O   R   C   A *
                                 *****************

                                            #,                                       
                                            ###                                      
                                            ####                                     
                                            #####                                    
                                            ######                                   
                                           ########,                                 
                                     ,,################,,,,,                         
                               ,,#################################,,                 
                          ,,##########################################,,             
                       ,#########################################, ''#####,          
                    ,#############################################,,   '####,        
                  ,##################################################,,,,####,       
                ,###########''''           ''''###############################       
              ,#####''   ,,,,##########,,,,          '''####'''          '####       
            ,##' ,,,,###########################,,,                        '##       
           ' ,,###''''                  '''############,,,                           
         ,,##''                                '''############,,,,        ,,,,,,###''
      ,#''                                            '''#######################'''  
     '                                                          ''''####''''         
             ,#######,   #######,   ,#######,      ##                                
            ,#'     '#,  ##    ##  ,#'     '#,    #''#        ######   ,####,        
            ##       ##  ##   ,#'  ##            #'  '#       #        #'  '#        
            ##       ##  #######   ##           ,######,      #####,   #    #        
            '#,     ,#'  ##    ##  '#,     ,#' ,#      #,         ##   #,  ,#        
             '#######'   ##     ##  '#######'  #'      '#     #####' # '####'        



                  #######################################################
                  #                        -***-                        #
                  #          Department of theory and spectroscopy      #
                  #    Directorship and core code : Frank Neese         #
                  #        Max Planck Institute fuer Kohlenforschung    #
                  #                Kaiser Wilhelm Platz 1               #
                  #                 D-45470 Muelheim/Ruhr               #
                  #                      Germany                        #
                  #                                                     #
                  #                  All rights reserved                #
                  #                        -***-                        #
                  #######################################################


                         Program Version 5.0.2 -  RELEASE  -


 With contributions from (in alphabetic order):
   Daniel Aravena         : Magnetic Suceptibility
   Michael Atanasov       : Ab Initio Ligand Field Theory (pilot matlab implementation)
   Alexander A. Auer      : GIAO ZORA, VPT2 properties, NMR spectrum
   Ute Becker             : Parallelization
   Giovanni Bistoni       : ED, misc. LED, open-shell LED, HFLD
   Martin Brehm           : Molecular dynamics
   Dmytro Bykov           : SCF Hessian
   Vijay G. Chilkuri      : MRCI spin determinant printing, contributions to CSF-ICE
   Dipayan Datta          : RHF DLPNO-CCSD density
   Achintya Kumar Dutta   : EOM-CC, STEOM-CC
   Dmitry Ganyushin       : Spin-Orbit,Spin-Spin,Magnetic field MRCI
   Miquel Garcia          : C-PCM and meta-GGA Hessian, CC/C-PCM, Gaussian charge scheme
   Yang Guo               : DLPNO-NEVPT2, F12-NEVPT2, CIM, IAO-localization
   Andreas Hansen         : Spin unrestricted coupled pair/coupled cluster methods
   Benjamin Helmich-Paris : MC-RPA, TRAH-SCF, COSX integrals
   Lee Huntington         : MR-EOM, pCC
   Robert Izsak           : Overlap fitted RIJCOSX, COSX-SCS-MP3, EOM
   Marcus Kettner         : VPT2
   Christian Kollmar      : KDIIS, OOCD, Brueckner-CCSD(T), CCSD density, CASPT2, CASPT2-K
   Simone Kossmann        : Meta GGA functionals, TD-DFT gradient, OOMP2, MP2 Hessian
   Martin Krupicka        : Initial AUTO-CI
   Lucas Lang             : DCDCAS
   Marvin Lechner         : AUTO-CI (C++ implementation), FIC-MRCC
   Dagmar Lenk            : GEPOL surface, SMD
   Dimitrios Liakos       : Extrapolation schemes; Compound Job, initial MDCI parallelization
   Dimitrios Manganas     : Further ROCIS development; embedding schemes
   Dimitrios Pantazis     : SARC Basis sets
   Anastasios Papadopoulos: AUTO-CI, single reference methods and gradients
   Taras Petrenko         : DFT Hessian,TD-DFT gradient, ASA, ECA, R-Raman, ABS, FL, XAS/XES, NRVS
   Peter Pinski           : DLPNO-MP2, DLPNO-MP2 Gradient
   Christoph Reimann      : Effective Core Potentials
   Marius Retegan         : Local ZFS, SOC
   Christoph Riplinger    : Optimizer, TS searches, QM/MM, DLPNO-CCSD(T), (RO)-DLPNO pert. Triples
   Tobias Risthaus        : Range-separated hybrids, TD-DFT gradient, RPA, STAB
   Michael Roemelt        : Original ROCIS implementation
   Masaaki Saitow         : Open-shell DLPNO-CCSD energy and density
   Barbara Sandhoefer     : DKH picture change effects
   Avijit Sen             : IP-ROCIS
   Kantharuban Sivalingam : CASSCF convergence, NEVPT2, FIC-MRCI
   Bernardo de Souza      : ESD, SOC TD-DFT
   Georgi Stoychev        : AutoAux, RI-MP2 NMR, DLPNO-MP2 response
   Willem Van den Heuvel  : Paramagnetic NMR
   Boris Wezisla          : Elementary symmetry handling
   Frank Wennmohs         : Technical directorship


 We gratefully acknowledge several colleagues who have allowed us to
 interface, adapt or use parts of their codes:
   Stefan Grimme, W. Hujo, H. Kruse, P. Pracht,  : VdW corrections, initial TS optimization,
                  C. Bannwarth, S. Ehlert          DFT functionals, gCP, sTDA/sTD-DF
   Ed Valeev, F. Pavosevic, A. Kumar             : LibInt (2-el integral package), F12 methods
   Garnet Chan, S. Sharma, J. Yang, R. Olivares  : DMRG
   Ulf Ekstrom                                   : XCFun DFT Library
   Mihaly Kallay                                 : mrcc  (arbitrary order and MRCC methods)
   Jiri Pittner, Ondrej Demel                    : Mk-CCSD
   Frank Weinhold                                : gennbo (NPA and NBO analysis)
   Christopher J. Cramer and Donald G. Truhlar   : smd solvation model
   Lars Goerigk                                  : TD-DFT with DH, B97 family of functionals
   V. Asgeirsson, H. Jonsson                     : NEB implementation
   FAccTs GmbH                                   : IRC, NEB, NEB-TS, DLPNO-Multilevel, CI-OPT
                                                   MM, QMMM, 2- and 3-layer-ONIOM, Crystal-QMMM,
                                                   LR-CPCM, SF, NACMEs, symmetry and pop. for TD-DFT,
                                                   nearIR, NL-DFT gradient (VV10), updates on ESD,
                                                   ML-optimized integration grids
   S Lehtola, MJT Oliveira, MAL Marques          : LibXC Library
   Liviu Ungur et al                             : ANISO software


 Your calculation uses the libint2 library for the computation of 2-el integrals
 For citations please refer to: http://libint.valeyev.net

 Your ORCA version has been built with support for libXC version: 5.1.0
 For citations please refer to: https://tddft.org/programs/libxc/

 This ORCA versions uses:
   CBLAS   interface :  Fast vector & matrix operations
   LAPACKE interface :  Fast linear algebra routines
   SCALAPACK package :  Parallel linear algebra routines
   Shared memory     :  Shared parallel matrices
   BLAS/LAPACK       :  OpenBLAS 0.3.15  USE64BITINT DYNAMIC_ARCH NO_AFFINITY Sandybridge SINGLE_THREADED
        Core in use  :  Sandybridge
   Copyright (c) 2011-2014, The OpenBLAS Project


Your calculation utilizes the atom-pairwise dispersion correction
with the Becke-Johnson damping scheme (D3BJ)
Cite in your paper:
S.Grimme, S.Ehrlich, L.Goerigk, J Comput Chem, (2011), 32, 1456–1465 
S.Grimme, J.Antony, S.Ehrlich and H.Krieg, J.Chem.Phys., 132, (2010), 154104 
   

Your calculation utilizes the SMD solvation module
Please cite in your paper:
A.V. Marenich, C.J. Cramer, D.G. Truhlar J. Phys. Chem. B, 113, (2009), 6378 

================================================================================

----- Orbital basis set information -----
Your calculation utilizes the basis: aug-cc-pVTZ 
    H, B-Ne : Obtained from the ccRepo (grant-hill.group.shef.ac.uk/ccrepo) Feb. 2017
              R. A. Kendall, T. H. Dunning, Jr., R. J. Harrison, J. Chem. Phys. 96, 6796 (1992)
         He : Obtained from the ccRepo (grant-hill.group.shef.ac.uk/ccrepo) Feb. 2017
              D. E. Woon, T. H. Dunning, Jr., J. Chem. Phys. 100, 2975 (1994)
  Li-Be, Na : Obtained from the ccRepo (grant-hill.group.shef.ac.uk/ccrepo) Feb. 2017
              B. P. Prascher, D. E. Woon, K. A. Peterson, T. H. Dunning, Jr., A. K. Wilson, Theor. Chem. Acc. 128, 69 (2011)
         Mg : Obtained from the Peterson Research Group Website (tyr0.chem.wsu.edu/~kipeters) Feb. 2017
              B. P. Prascher, D. E. Woon, K. A. Peterson, T. H. Dunning, Jr., A. K. Wilson, Theor. Chem. Acc. 128, 69 (2011)
      Al-Ar : Obtained from the ccRepo (grant-hill.group.shef.ac.uk/ccrepo) Feb. 2017
              D. E. Woon, T. H. Dunning, Jr., J. Chem. Phys. 98, 1358 (1993)
      Sc-Zn : Obtained from the ccRepo (grant-hill.group.shef.ac.uk/ccrepo) Feb. 2017
              N. B. Balabanov, K. A. Peterson, J. Chem. Phys. 123, 064107 (2005)
              N. B. Balabanov, K. A. Peterson, J. Chem. Phys. 125, 074110 (2006)
      Ga-Kr : Obtained from the ccRepo (grant-hill.group.shef.ac.uk/ccrepo) Feb. 2017
              A. K. Wilson, D. E. Woon, K. A. Peterson, T. H. Dunning, Jr., J. Chem. Phys. 110, 7667 (1999)
     Ag, Au : Obtained from the Peterson Research Group Website (tyr0.chem.wsu.edu/~kipeters) Feb. 2017
              K. A. Peterson, C. Puzzarini, Theor. Chem. Acc. 114, 283 (2005)

The basis set includes element-specific modifications.

Your calculation utilizes the basis: cc-pVTZ 
       H, B-Ne : Obtained from the ccRepo (grant-hill.group.shef.ac.uk/ccrepo) Feb. 2017
                 T. H. Dunning, Jr., J. Chem. Phys. 90, 1007 (1989)
            He : Obtained from the ccRepo (grant-hill.group.shef.ac.uk/ccrepo) Feb. 2017
                 D. E. Woon, T. H. Dunning, Jr., J. Chem. Phys. 100, 2975 (1994)
  Li-Be, Na-Mg : Obtained from the ccRepo (grant-hill.group.shef.ac.uk/ccrepo) Feb. 2017
                 B. P. Prascher, D. E. Woon, K. A. Peterson, T. H. Dunning, Jr., A. K. Wilson, Theor. Chem. Acc. 128, 69 (2011)
         Al-Ar : Obtained from the ccRepo (grant-hill.group.shef.ac.uk/ccrepo) Feb. 2017
                 D. E. Woon, T. H. Dunning, Jr., J. Chem. Phys. 98, 1358 (1993)
            Ca : Obtained from the Peterson Research Group Website (tyr0.chem.wsu.edu/~kipeters) Feb. 2017
                 J. Koput, K. A. Peterson, J. Phys. Chem. 106, 9595 (2002)
         Sc-Zn : Obtained from the ccRepo (grant-hill.group.shef.ac.uk/ccrepo) Feb. 2017
                 N. B. Balabanov, K. A. Peterson, J. Chem. Phys. 123, 064107 (2005)
                 N. B. Balabanov, K. A. Peterson, J. Chem. Phys. 125, 074110 (2006)
         Ga-Kr : Obtained from the ccRepo (grant-hill.group.shef.ac.uk/ccrepo) Feb. 2017
                 A. K. Wilson, D. E. Woon, K. A. Peterson, T. H. Dunning, Jr., J. Chem. Phys. 110, 7667 (1999)
             Y : Obtained from the ccRepo (grant-hill.group.shef.ac.uk/ccrepo) Feb. 2017
                 K. A. Peterson, D. Figgen, M. Dolg, H. Stoll, J. Chem. Phys. 126, 124101 (2007)
        Ag, Au : Obtained from the Peterson Research Group Website (tyr0.chem.wsu.edu/~kipeters) Feb. 2017
                 K. A. Peterson, C. Puzzarini, Theor. Chem. Acc. 114, 283 (2005)

----- AuxJ basis set information -----
Your calculation utilizes the auxiliary basis: aug-cc-pVTZ/JK 
  H, B-F, Al-Cl, Ga-Br : Obtained from the TURBOMOLE 7.0 basis set library

The basis set includes element-specific modifications.

Your calculation utilizes the auxiliary basis: cc-pVTZ/JK 
  H, B-F, Al-Cl, Ga-Br : Obtained from the TURBOMOLE 7.0 basis set library

----- AuxC basis set information -----
Your calculation utilizes the auxiliary basis: aug-cc-pVTZ/C 
  H-He, B-F, Al-Ar, Ga-Kr : Obtained from the EMSL Basis Set Exchange (bse.pnl.gov) Feb. 2017
                            F. Weigend, A. Kohn, C. Hattig, J. Chem. Phys. 116, 3175 (2002)
                   Be, Mg : Obtained from the TURBOMOLE 7.0 basis set library
                            C. Haettig, Phys. Chem. Chem. Phys. 7, 59 (2005)
                       Ne : Obtained from the EMSL Basis Set Exchange (bse.pnl.gov) Feb. 2017
                            C. Haettig, Phys. Chem. Chem. Phys. 7, 59 (2005)
                            F. Weigend, A. Kohn, C. Hattig, J. Chem. Phys. 116, 3175 (2002)
                    Sc-Zn : Obtained from the EMSL Basis Set Exchange (bse.pnl.gov) Feb. 2017
                            J. G. Hill, J. A. Platts, J. Chem. Phys. 128, 044104 (2008)

The basis set includes element-specific modifications.

Your calculation utilizes the auxiliary basis: cc-pVTZ/C 
  Obtained from the EMSL Basis Set Exchange (bse.pnl.gov) Feb. 2017
  H-He, B-F, Al-Ar, Ga-Kr : F. Weigend, A. Kohn, C. Hattig, J. Chem. Phys. 116, 3175 (2002)
             Li-Be, Na-Mg : C. Haettig, Phys. Chem. Chem. Phys. 7, 59 (2005)
                       Ne : C. Haettig, Phys. Chem. Chem. Phys. 7, 59 (2005)
                            F. Weigend, A. Kohn, C. Hattig, J. Chem. Phys. 116, 3175 (2002)
                    Sc-Zn : J. G. Hill, J. A. Platts, J. Chem. Phys. 128, 044104 (2008)

================================================================================
                                        WARNINGS
                       Please study these warnings very carefully!
================================================================================


WARNING: Geometry Optimization
  ===> : Switching off AutoStart
         For restart on a previous wavefunction, please use MOREAD

INFO   : the flag for use of the SHARK integral package has been found!



***************************************
The coordinates will be read from file: 
***************************************


Your calculation utilizes the atom-pairwise dispersion correction
with the Becke-Johnson damping scheme (D3BJ)
Cite in your paper:
S.Grimme, S.Ehrlich, L.Goerigk, J Comput Chem, (2011), 32, 1456–1465 
S.Grimme, J.Antony, S.Ehrlich and H.Krieg, J.Chem.Phys., 132, (2010), 154104 
   

Your calculation utilizes the SMD solvation module
Please cite in your paper:
A.V. Marenich, C.J. Cramer, D.G. Truhlar J. Phys. Chem. B, 113, (2009), 6378 

================================================================================

----- Orbital basis set information -----
Your calculation utilizes the basis: aug-cc-pVTZ 
    H, B-Ne : Obtained from the ccRepo (grant-hill.group.shef.ac.uk/ccrepo) Feb. 2017
              R. A. Kendall, T. H. Dunning, Jr., R. J. Harrison, J. Chem. Phys. 96, 6796 (1992)
         He : Obtained from the ccRepo (grant-hill.group.shef.ac.uk/ccrepo) Feb. 2017
              D. E. Woon, T. H. Dunning, Jr., J. Chem. Phys. 100, 2975 (1994)
  Li-Be, Na : Obtained from the ccRepo (grant-hill.group.shef.ac.uk/ccrepo) Feb. 2017
              B. P. Prascher, D. E. Woon, K. A. Peterson, T. H. Dunning, Jr., A. K. Wilson, Theor. Chem. Acc. 128, 69 (2011)
         Mg : Obtained from the Peterson Research Group Website (tyr0.chem.wsu.edu/~kipeters) Feb. 2017
              B. P. Prascher, D. E. Woon, K. A. Peterson, T. H. Dunning, Jr., A. K. Wilson, Theor. Chem. Acc. 128, 69 (2011)
      Al-Ar : Obtained from the ccRepo (grant-hill.group.shef.ac.uk/ccrepo) Feb. 2017
              D. E. Woon, T. H. Dunning, Jr., J. Chem. Phys. 98, 1358 (1993)
      Sc-Zn : Obtained from the ccRepo (grant-hill.group.shef.ac.uk/ccrepo) Feb. 2017
              N. B. Balabanov, K. A. Peterson, J. Chem. Phys. 123, 064107 (2005)
              N. B. Balabanov, K. A. Peterson, J. Chem. Phys. 125, 074110 (2006)
      Ga-Kr : Obtained from the ccRepo (grant-hill.group.shef.ac.uk/ccrepo) Feb. 2017
              A. K. Wilson, D. E. Woon, K. A. Peterson, T. H. Dunning, Jr., J. Chem. Phys. 110, 7667 (1999)
     Ag, Au : Obtained from the Peterson Research Group Website (tyr0.chem.wsu.edu/~kipeters) Feb. 2017
              K. A. Peterson, C. Puzzarini, Theor. Chem. Acc. 114, 283 (2005)

The basis set includes element-specific modifications.

Your calculation utilizes the basis: cc-pVTZ 
       H, B-Ne : Obtained from the ccRepo (grant-hill.group.shef.ac.uk/ccrepo) Feb. 2017
                 T. H. Dunning, Jr., J. Chem. Phys. 90, 1007 (1989)
            He : Obtained from the ccRepo (grant-hill.group.shef.ac.uk/ccrepo) Feb. 2017
                 D. E. Woon, T. H. Dunning, Jr., J. Chem. Phys. 100, 2975 (1994)
  Li-Be, Na-Mg : Obtained from the ccRepo (grant-hill.group.shef.ac.uk/ccrepo) Feb. 2017
                 B. P. Prascher, D. E. Woon, K. A. Peterson, T. H. Dunning, Jr., A. K. Wilson, Theor. Chem. Acc. 128, 69 (2011)
         Al-Ar : Obtained from the ccRepo (grant-hill.group.shef.ac.uk/ccrepo) Feb. 2017
                 D. E. Woon, T. H. Dunning, Jr., J. Chem. Phys. 98, 1358 (1993)
            Ca : Obtained from the Peterson Research Group Website (tyr0.chem.wsu.edu/~kipeters) Feb. 2017
                 J. Koput, K. A. Peterson, J. Phys. Chem. 106, 9595 (2002)
         Sc-Zn : Obtained from the ccRepo (grant-hill.group.shef.ac.uk/ccrepo) Feb. 2017
                 N. B. Balabanov, K. A. Peterson, J. Chem. Phys. 123, 064107 (2005)
                 N. B. Balabanov, K. A. Peterson, J. Chem. Phys. 125, 074110 (2006)
         Ga-Kr : Obtained from the ccRepo (grant-hill.group.shef.ac.uk/ccrepo) Feb. 2017
                 A. K. Wilson, D. E. Woon, K. A. Peterson, T. H. Dunning, Jr., J. Chem. Phys. 110, 7667 (1999)
             Y : Obtained from the ccRepo (grant-hill.group.shef.ac.uk/ccrepo) Feb. 2017
                 K. A. Peterson, D. Figgen, M. Dolg, H. Stoll, J. Chem. Phys. 126, 124101 (2007)
        Ag, Au : Obtained from the Peterson Research Group Website (tyr0.chem.wsu.edu/~kipeters) Feb. 2017
                 K. A. Peterson, C. Puzzarini, Theor. Chem. Acc. 114, 283 (2005)

----- AuxJ basis set information -----
Your calculation utilizes the auxiliary basis: aug-cc-pVTZ/JK 
  H, B-F, Al-Cl, Ga-Br : Obtained from the TURBOMOLE 7.0 basis set library

The basis set includes element-specific modifications.

Your calculation utilizes the auxiliary basis: cc-pVTZ/JK 
  H, B-F, Al-Cl, Ga-Br : Obtained from the TURBOMOLE 7.0 basis set library

----- AuxC basis set information -----
Your calculation utilizes the auxiliary basis: aug-cc-pVTZ/C 
  H-He, B-F, Al-Ar, Ga-Kr : Obtained from the EMSL Basis Set Exchange (bse.pnl.gov) Feb. 2017
                            F. Weigend, A. Kohn, C. Hattig, J. Chem. Phys. 116, 3175 (2002)
                   Be, Mg : Obtained from the TURBOMOLE 7.0 basis set library
                            C. Haettig, Phys. Chem. Chem. Phys. 7, 59 (2005)
                       Ne : Obtained from the EMSL Basis Set Exchange (bse.pnl.gov) Feb. 2017
                            C. Haettig, Phys. Chem. Chem. Phys. 7, 59 (2005)
                            F. Weigend, A. Kohn, C. Hattig, J. Chem. Phys. 116, 3175 (2002)
                    Sc-Zn : Obtained from the EMSL Basis Set Exchange (bse.pnl.gov) Feb. 2017
                            J. G. Hill, J. A. Platts, J. Chem. Phys. 128, 044104 (2008)

The basis set includes element-specific modifications.

Your calculation utilizes the auxiliary basis: cc-pVTZ/C 
  Obtained from the EMSL Basis Set Exchange (bse.pnl.gov) Feb. 2017
  H-He, B-F, Al-Ar, Ga-Kr : F. Weigend, A. Kohn, C. Hattig, J. Chem. Phys. 116, 3175 (2002)
             Li-Be, Na-Mg : C. Haettig, Phys. Chem. Chem. Phys. 7, 59 (2005)
                       Ne : C. Haettig, Phys. Chem. Chem. Phys. 7, 59 (2005)
                            F. Weigend, A. Kohn, C. Hattig, J. Chem. Phys. 116, 3175 (2002)
                    Sc-Zn : J. G. Hill, J. A. Platts, J. Chem. Phys. 128, 044104 (2008)

================================================================================
                                        WARNINGS
                       Please study these warnings very carefully!
================================================================================

INFO   : Checking CIS options ...
  ===> : (D) CORRECTION FOUND - SETTING MODE=3
  ===> : JK MODE FOUND - ACTIVATING RI-MP2 CODE
  ===> : MP2 AND CIS FOUND - CHECKING
WARNING: CIS(D) and MP2 runs must have the same orbital window
  ===> : adjusting orbital windows

WARNING: No MP2 level density has been requested!
         To caclulate MP2 level properties use
         %mp2 Density relaxed end
         or
         %mp2 Density unrelaxed end
         Otherwise for double-hybrid DFT only the energy is correct!

WARNING: The frozen-core approximation is turned on by default for 
         the MP2 part of double-hybrid DFT.

WARNING:  You are using a Range-Separated Double Hybrid functional with Doubles Correction 
          Changing Mode to AOINTS 


INFO   : the flag for use of the SHARK integral package has been found!

================================================================================
                                       INPUT FILE
================================================================================
NAME = optpbed3-wb2plyp-train-2.inp
|  1> ! pbe0 d3bj aug-cc-PVTZ RIJCOSX Opt
|  2> %maxcore 4000
|  3> %basis
|  4>  AuxJ "aug-cc-PVTZ/JK"
|  5>  AuxC "aug-cc-PVTZ/C"
|  6>  newGTO H "cc-PVTZ" end
|  7>  newAuxJGTO H "cc-PVTZ/JK" end
|  8>  newAuxCGTO H "cc-PVTZ/C" end
|  9> end
| 10> %cpcm
| 11>  SMD true
| 12>  SMDsolvent "dichloromethane"
| 13> end
| 14> %pal nprocs 4 end
| 15> * xyz 0 1
| 16> F          0.72380        3.39900        2.61910
| 17> B          0.91350        2.05130        2.60710
| 18> F          1.14070        1.54790        3.85390
| 19> O         -0.32270        1.40010        2.05040
| 20> C         -0.27780        0.65900        1.00080
| 21> C         -1.49040        0.07470        0.56860
| 22> C         -2.54740       -0.40390        0.22560
| 23> C         -3.76600       -0.97090       -0.19280
| 24> C         -3.84740       -1.64970       -1.41190
| 25> C         -5.04980       -2.19760       -1.81280
| 26> C         -6.17350       -2.07890       -1.00860
| 27> C         -6.09630       -1.40760        0.20250
| 28> C         -4.90110       -0.85190        0.61430
| 29> C          0.89140        0.40810        0.27860
| 30> C          2.07760        0.99670        0.71400
| 31> C          3.35730        0.77730        0.02690
| 32> C          4.54130        1.00820        0.73150
| 33> C          5.76580        0.80880        0.12520
| 34> C          5.82630        0.38700       -1.19380
| 35> C          4.65640        0.16970       -1.90530
| 36> C          3.42730        0.36000       -1.30310
| 37> O          2.11970        1.75080        1.75630
| 38> H         -2.96700       -1.73660       -2.03120
| 39> H         -5.11380       -2.72020       -2.75560
| 40> H         -7.11080       -2.51020       -1.32670
| 41> H         -6.97290       -1.31740        0.82620
| 42> H         -4.82870       -0.32640        1.55440
| 43> H          0.85920       -0.24490       -0.57350
| 44> H          4.47670        1.33690        1.75720
| 45> H          6.67530        0.98420        0.67950
| 46> H          6.78320        0.23290       -1.66970
| 47> H          4.70400       -0.14690       -2.93650
| 48> H          2.52610        0.21060       -1.87670
| 49> *
| 50> 
| 51> 
| 52> $new_job
| 53> ! wb2plyp aug-cc-PVTZ RIJCOSX SP
| 54> %maxcore 4000
| 55> %basis
| 56>  AuxJ "aug-cc-PVTZ/JK"
| 57>  AuxC "aug-cc-PVTZ/C"
| 58>  newGTO H "cc-PVTZ" end
| 59>  newAuxJGTO H "cc-PVTZ/JK" end
| 60>  newAuxCGTO H "cc-PVTZ/C" end
| 61> end
| 62> %cpcm
| 63>  SMD true
| 64>  SMDsolvent "dichloromethane"
| 65> end
| 66> %pal nprocs 4 end
| 67> %tddft
| 68>  nroots 10
| 69>  maxdim 7
| 70> end
| 71> * xyzfile 0 1
| 72> 
| 73>                          ****END OF INPUT****
================================================================================


                 $$$$$$$$$$$$$$$$$$$$$$$$$$$$$$$$$$$$$$$$$$$$$$ 
                 $ THERE ARE  2 JOBS TO BE PROCESSED THIS RUN $
                 $$$$$$$$$$$$$$$$$$$$$$$$$$$$$$$$$$$$$$$$$$$$$$ 




                 $$$$$$$$$$$$$$$$  JOB NUMBER  1 $$$$$$$$$$$$$$


                       *****************************
                       * Geometry Optimization Run *
                       *****************************

Geometry optimization settings:
Update method            Update   .... BFGS
Choice of coordinates    CoordSys .... Z-matrix Internals
Initial Hessian          InHess   .... Almoef's Model

Convergence Tolerances:
Energy Change            TolE     ....  5.0000e-06 Eh
Max. Gradient            TolMAXG  ....  3.0000e-04 Eh/bohr
RMS Gradient             TolRMSG  ....  1.0000e-04 Eh/bohr
Max. Displacement        TolMAXD  ....  4.0000e-03 bohr
RMS Displacement         TolRMSD  ....  2.0000e-03 bohr
Strict Convergence                ....  False
------------------------------------------------------------------------------
                        ORCA OPTIMIZATION COORDINATE SETUP
------------------------------------------------------------------------------

The optimization will be done in new redundant internal coordinates
Making redundant internal coordinates   ...  (new redundants) done
Evaluating the initial hessian          ...  (Almloef) done
Evaluating the coordinates              ...  done
Calculating the B-matrix                .... done
Calculating the G-matrix                .... done
Diagonalizing the G-matrix              .... done
Small eigenvalue found = 1.473e-03
Small eigenvalue found = 1.094e-02
Small eigenvalue found = 1.619e-02
Small eigenvalue found = 2.710e-02
The first mode is                       ....   73
The number of degrees of freedom        ....   93

    -----------------------------------------------------------------
                    Redundant Internal Coordinates


    -----------------------------------------------------------------
         Definition                    Initial Value    Approx d2E/dq
    -----------------------------------------------------------------
      1. B(B   1,F   0)                  1.3610         0.669870   
      2. B(F   2,B   1)                  1.3637         0.663474   
      3. B(O   3,B   1)                  1.5041         0.426318   
      4. B(C   4,O   3)                  1.2857         0.821019   
      5. B(C   5,C   4)                  1.4137         0.572659   
      6. B(C   6,C   5)                  1.2099         1.210632   
      7. B(C   7,C   6)                  1.4077         0.585528   
      8. B(C   8,C   7)                  1.3977         0.607343   
      9. B(C   9,C   8)                  1.3808         0.646212   
     10. B(C  10,C   9)                  1.3869         0.631921   
     11. B(C  11,C  10)                  1.3869         0.632057   
     12. B(C  12,C  11)                  1.3809         0.646036   
     13. B(C  12,C   7)                  1.3979         0.607005   
     14. B(C  13,C   4)                  1.3970         0.608980   
     15. B(C  14,C  13)                  1.3939         0.615798   
     16. B(C  15,C  14)                  1.4690         0.467462   
     17. B(C  16,C  15)                  1.3970         0.608916   
     18. B(C  17,C  16)                  1.3809         0.646143   
     19. B(C  18,C  17)                  1.3861         0.633759   
     20. B(C  19,C  18)                  1.3864         0.633104   
     21. B(C  20,C  19)                  1.3819         0.643755   
     22. B(C  20,C  15)                  1.3957         0.611881   
     23. B(O  21,C  14)                  1.2872         0.816433   
     24. B(O  21,B   1)                  1.5063         0.422736   
     25. B(H  22,C   8)                  1.0799         0.373709   
     26. B(H  23,C   9)                  1.0799         0.373779   
     27. B(H  24,C  10)                  1.0797         0.373995   
     28. B(H  25,C  11)                  1.0796         0.374106   
     29. B(H  26,C  12)                  1.0794         0.374351   
     30. B(H  27,C  13)                  1.0740         0.381871   
     31. B(H  28,C  16)                  1.0790         0.374926   
     32. B(H  29,C  17)                  1.0794         0.374336   
     33. B(H  30,C  18)                  1.0798         0.373902   
     34. B(H  31,C  19)                  1.0798         0.373909   
     35. B(H  32,C  20)                  1.0787         0.375424   
     36. A(F   2,B   1,O  21)          108.0204         0.410300   
     37. A(F   0,B   1,F   2)          112.3770         0.443643   
     38. A(F   0,B   1,O   3)          108.5074         0.411614   
     39. A(O   3,B   1,O  21)          111.2671         0.381283   
     40. A(F   2,B   1,O   3)          108.3926         0.410914   
     41. A(F   0,B   1,O  21)          108.3078         0.410999   
     42. A(B   1,O   3,C   4)          121.5369         0.424957   
     43. A(O   3,C   4,C   5)          117.2502         0.447188   
     44. A(O   3,C   4,C  13)          123.6978         0.452208   
     45. A(C   5,C   4,C  13)          119.0520         0.426545   
     46. L(C   4,C   5,C   6,O   3, 1) 178.1495         0.483342   
     47. L(C   4,C   5,C   6,O   3, 2) 179.5246         0.483342   
     48. L(C   5,C   6,C   7,C   8, 1) 179.0062         0.485330   
     49. L(C   5,C   6,C   7,C   8, 2) 179.8023         0.485330   
     50. A(C   8,C   7,C  12)          119.8447         0.430816   
     51. A(C   6,C   7,C  12)          119.8053         0.427998   
     52. A(C   6,C   7,C   8)          120.3499         0.428041   
     53. A(C   7,C   8,C   9)          119.7784         0.435693   
     54. A(C   9,C   8,H  22)          120.7627         0.357640   
     55. A(C   7,C   8,H  22)          119.4586         0.353895   
     56. A(C   8,C   9,C  10)          120.2128         0.438820   
     57. A(C  10,C   9,H  23)          119.9773         0.356295   
     58. A(C   8,C   9,H  23)          119.8099         0.357651   
     59. A(C   9,C  10,C  11)          120.1782         0.437071   
     60. A(C  11,C  10,H  24)          119.9317         0.356343   
     61. A(C   9,C  10,H  24)          119.8901         0.356330   
     62. A(C  12,C  11,H  25)          119.7929         0.357688   
     63. A(C  10,C  11,H  25)          119.9826         0.356361   
     64. A(C  10,C  11,C  12)          120.2244         0.438815   
     65. A(C   7,C  12,H  26)          119.3295         0.353964   
     66. A(C  11,C  12,H  26)          120.9092         0.357728   
     67. A(C   7,C  12,C  11)          119.7612         0.435628   
     68. A(C  14,C  13,H  27)          122.0089         0.356027   
     69. A(C   4,C  13,H  27)          119.6208         0.355355   
     70. A(C   4,C  13,C  14)          118.3528         0.432140   
     71. A(C  13,C  14,C  15)          122.1512         0.412202   
     72. A(C  15,C  14,O  21)          115.9614         0.430671   
     73. A(C  13,C  14,O  21)          121.8798         0.452663   
     74. A(C  16,C  15,C  20)          119.1788         0.431636   
     75. A(C  14,C  15,C  20)          122.2814         0.411736   
     76. A(C  14,C  15,C  16)          118.5371         0.411381   
     77. A(C  15,C  16,H  28)          118.6234         0.354245   
     78. A(C  17,C  16,H  28)          120.9614         0.357831   
     79. A(C  15,C  16,C  17)          120.4136         0.435888   
     80. A(C  18,C  17,H  29)          120.0866         0.356561   
     81. A(C  16,C  17,H  29)          119.8827         0.357736   
     82. A(C  16,C  17,C  18)          120.0305         0.439042   
     83. A(C  19,C  18,H  30)          119.9512         0.356428   
     84. A(C  17,C  18,H  30)          120.1001         0.356491   
     85. A(C  17,C  18,C  19)          119.9478         0.437430   
     86. A(C  18,C  19,C  20)          120.3527         0.438666   
     87. A(C  20,C  19,H  31)          119.7213         0.357441   
     88. A(C  18,C  19,H  31)          119.9257         0.356429   
     89. A(C  15,C  20,C  19)          120.0704         0.435978   
     90. A(C  19,C  20,H  32)          119.4924         0.357687   
     91. A(C  15,C  20,H  32)          120.4147         0.354616   
     92. A(B   1,O  21,C  14)          123.2327         0.423891   
     93. D(C   4,O   3,B   1,F   0)    121.0462         0.011865   
     94. D(C   4,O   3,B   1,F   2)   -116.6520         0.011865   
     95. D(C   4,O   3,B   1,O  21)      1.9848         0.011865   
     96. D(C  13,C   4,O   3,B   1)     -1.0221         0.052280   
     97. D(C   5,C   4,O   3,B   1)    179.0147         0.052280   
     98. D(C   8,C   7,C   4,C  13)     -7.8498         0.001500   
     99. D(C   8,C   7,C   4,O   3)    171.9278         0.001500   
    100. D(C  12,C   7,C   4,O   3)     -7.8166         0.001500   
    101. D(C  12,C   7,C   4,C  13)    172.4057         0.001500   
    102. D(H  22,C   8,C   7,C   6)      0.0345         0.025463   
    103. D(C   9,C   8,C   7,C  12)      0.0821         0.025463   
    104. D(H  22,C   8,C   7,C  12)    179.9066         0.025463   
    105. D(C   9,C   8,C   7,C   6)   -179.7900         0.025463   
    106. D(C  10,C   9,C   8,H  22)   -179.9824         0.029052   
    107. D(C  10,C   9,C   8,C   7)     -0.1602         0.029052   
    108. D(H  23,C   9,C   8,H  22)      0.0395         0.029052   
    109. D(H  23,C   9,C   8,C   7)    179.8616         0.029052   
    110. D(H  24,C  10,C   9,H  23)      0.0415         0.027698   
    111. D(H  24,C  10,C   9,C   8)   -179.9366         0.027698   
    112. D(C  11,C  10,C   9,H  23)   -179.9439         0.027698   
    113. D(C  11,C  10,C   9,C   8)      0.0780         0.027698   
    114. D(H  25,C  11,C  10,H  24)      0.0375         0.027711   
    115. D(H  25,C  11,C  10,C   9)   -179.9772         0.027711   
    116. D(C  12,C  11,C  10,H  24)   -179.9008         0.027711   
    117. D(C  12,C  11,C  10,C   9)      0.0846         0.027711   
    118. D(C   7,C  12,C  11,C  10)     -0.1618         0.029035   
    119. D(H  26,C  12,C   7,C   8)    179.9673         0.025433   
    120. D(H  26,C  12,C   7,C   6)     -0.1599         0.025433   
    121. D(C  11,C  12,C   7,C   8)      0.0788         0.025433   
    122. D(C   7,C  12,C  11,H  25)    179.8998         0.029035   
    123. D(C  11,C  12,C   7,C   6)    179.9515         0.025433   
    124. D(H  26,C  12,C  11,H  25)      0.0130         0.029035   
    125. D(H  26,C  12,C  11,C  10)    179.9514         0.029035   
    126. D(H  27,C  13,C   4,C   5)     -1.7908         0.025608   
    127. D(H  27,C  13,C   4,O   3)    178.2466         0.025608   
    128. D(C  14,C  13,C   4,C   5)    179.7009         0.025608   
    129. D(C  14,C  13,C   4,O   3)     -0.2617         0.025608   
    130. D(O  21,C  14,C  13,H  27)   -178.1374         0.026219   
    131. D(O  21,C  14,C  13,C   4)      0.3334         0.026219   
    132. D(C  15,C  14,C  13,H  27)      0.8174         0.026219   
    133. D(C  15,C  14,C  13,C   4)    179.2881         0.026219   
    134. D(C  20,C  15,C  14,O  21)   -159.3682         0.014881   
    135. D(C  20,C  15,C  14,C  13)     21.6190         0.014881   
    136. D(C  16,C  15,C  14,O  21)     20.0272         0.014881   
    137. D(C  16,C  15,C  14,C  13)   -158.9856         0.014881   
    138. D(H  28,C  16,C  15,C  20)    179.5982         0.025602   
    139. D(H  28,C  16,C  15,C  14)      0.1836         0.025602   
    140. D(C  17,C  16,C  15,C  20)     -0.8613         0.025602   
    141. D(C  17,C  16,C  15,C  14)    179.7242         0.025602   
    142. D(H  29,C  17,C  16,H  28)     -0.1066         0.029045   
    143. D(H  29,C  17,C  16,C  15)   -179.6363         0.029045   
    144. D(C  18,C  17,C  16,H  28)   -179.9639         0.029045   
    145. D(C  18,C  17,C  16,C  15)      0.5065         0.029045   
    146. D(H  30,C  18,C  17,H  29)      0.0032         0.027870   
    147. D(H  30,C  18,C  17,C  16)    179.8601         0.027870   
    148. D(C  19,C  18,C  17,H  29)   -179.6439         0.027870   
    149. D(C  19,C  18,C  17,C  16)      0.2130         0.027870   
    150. D(H  31,C  19,C  18,H  30)     -0.4156         0.027809   
    151. D(H  31,C  19,C  18,C  17)    179.2320         0.027809   
    152. D(C  20,C  19,C  18,H  30)    179.7805         0.027809   
    153. D(C  20,C  19,C  18,C  17)     -0.5719         0.027809   
    154. D(C  19,C  20,C  15,C  16)      0.5023         0.025867   
    155. D(C  19,C  20,C  15,C  14)    179.8939         0.025867   
    156. D(H  32,C  20,C  19,H  31)     -1.3144         0.028816   
    157. D(H  32,C  20,C  19,C  18)    178.4900         0.028816   
    158. D(C  15,C  20,C  19,H  31)   -179.5953         0.028816   
    159. D(C  15,C  20,C  19,C  18)      0.2090         0.028816   
    160. D(H  32,C  20,C  15,C  16)   -177.7626         0.025867   
    161. D(H  32,C  20,C  15,C  14)      1.6290         0.025867   
    162. D(B   1,O  21,C  14,C  15)   -178.1208         0.051626   
    163. D(B   1,O  21,C  14,C  13)      0.8949         0.051626   
    164. D(C  14,O  21,B   1,O   3)     -1.9494         0.011676   
    165. D(C  14,O  21,B   1,F   2)    116.9105         0.011676   
    166. D(C  14,O  21,B   1,F   0)   -121.1301         0.011676   
    -----------------------------------------------------------------

Number of atoms                         .... 33
Number of degrees of freedom            .... 166

         *************************************************************
         *                GEOMETRY OPTIMIZATION CYCLE   1            *
         *************************************************************
---------------------------------
CARTESIAN COORDINATES (ANGSTROEM)
---------------------------------
  F      0.723800    3.399000    2.619100
  B      0.913500    2.051300    2.607100
  F      1.140700    1.547900    3.853900
  O     -0.322700    1.400100    2.050400
  C     -0.277800    0.659000    1.000800
  C     -1.490400    0.074700    0.568600
  C     -2.547400   -0.403900    0.225600
  C     -3.766000   -0.970900   -0.192800
  C     -3.847400   -1.649700   -1.411900
  C     -5.049800   -2.197600   -1.812800
  C     -6.173500   -2.078900   -1.008600
  C     -6.096300   -1.407600    0.202500
  C     -4.901100   -0.851900    0.614300
  C      0.891400    0.408100    0.278600
  C      2.077600    0.996700    0.714000
  C      3.357300    0.777300    0.026900
  C      4.541300    1.008200    0.731500
  C      5.765800    0.808800    0.125200
  C      5.826300    0.387000   -1.193800
  C      4.656400    0.169700   -1.905300
  C      3.427300    0.360000   -1.303100
  O      2.119700    1.750800    1.756300
  H     -2.967000   -1.736600   -2.031200
  H     -5.113800   -2.720200   -2.755600
  H     -7.110800   -2.510200   -1.326700
  H     -6.972900   -1.317400    0.826200
  H     -4.828700   -0.326400    1.554400
  H      0.859200   -0.244900   -0.573500
  H      4.476700    1.336900    1.757200
  H      6.675300    0.984200    0.679500
  H      6.783200    0.232900   -1.669700
  H      4.704000   -0.146900   -2.936500
  H      2.526100    0.210600   -1.876700

----------------------------
CARTESIAN COORDINATES (A.U.)
----------------------------
  NO LB      ZA    FRAG     MASS         X           Y           Z
   0 F     9.0000    0    18.998    1.367784    6.423179    4.949382
   1 B     5.0000    0    10.810    1.726265    3.876395    4.926705
   2 F     9.0000    0    18.998    2.155611    2.925107    7.282816
   3 O     8.0000    0    15.999   -0.609815    2.645806    3.874694
   4 C     6.0000    0    12.011   -0.524966    1.245330    1.891238
   5 C     6.0000    0    12.011   -2.816448    0.141163    1.074498
   6 C     6.0000    0    12.011   -4.813888   -0.763260    0.426322
   7 C     6.0000    0    12.011   -7.116709   -1.834735   -0.364339
   8 C     6.0000    0    12.011   -7.270532   -3.117481   -2.668104
   9 C     6.0000    0    12.011   -9.542739   -4.152862   -3.425696
  10 C     6.0000    0    12.011  -11.666224   -3.928552   -1.905978
  11 C     6.0000    0    12.011  -11.520337   -2.659979    0.382670
  12 C     6.0000    0    12.011   -9.261737   -1.609858    1.160859
  13 C     6.0000    0    12.011    1.684502    0.771197    0.526478
  14 C     6.0000    0    12.011    3.926095    1.883490    1.349264
  15 C     6.0000    0    12.011    6.344378    1.468884    0.050834
  16 C     6.0000    0    12.011    8.581813    1.905222    1.382335
  17 C     6.0000    0    12.011   10.895783    1.528410    0.236594
  18 C     6.0000    0    12.011   11.010111    0.731324   -2.255955
  19 C     6.0000    0    12.011    8.799321    0.320687   -3.600495
  20 C     6.0000    0    12.011    6.476658    0.680301   -2.462502
  21 O     8.0000    0    15.999    4.005652    3.308533    3.318926
  22 H     1.0000    0     1.008   -5.606817   -3.281698   -3.838412
  23 H     1.0000    0     1.008   -9.663682   -5.140433   -5.207329
  24 H     1.0000    0     1.008  -13.437465   -4.743591   -2.507100
  25 H     1.0000    0     1.008  -13.176871   -2.489525    1.561292
  26 H     1.0000    0     1.008   -9.124921   -0.616807    2.937390
  27 H     1.0000    0     1.008    1.623653   -0.462794   -1.083758
  28 H     1.0000    0     1.008    8.459737    2.526375    3.320627
  29 H     1.0000    0     1.008   12.614489    1.859868    1.284069
  30 H     1.0000    0     1.008   12.818390    0.440117   -3.155276
  31 H     1.0000    0     1.008    8.889272   -0.277601   -5.549181
  32 H     1.0000    0     1.008    4.773637    0.397976   -3.546449

--------------------------------
INTERNAL COORDINATES (ANGSTROEM)
--------------------------------
 F      0   0   0     0.000000000000     0.00000000     0.00000000
 B      1   0   0     1.361038346264     0.00000000     0.00000000
 F      2   1   0     1.363650116415   112.37700882     0.00000000
 O      2   1   3     1.504050122170   108.50739916   119.84415182
 C      4   2   1     1.285653678095   121.53692283   121.04622605
 C      5   4   2     1.413719240161   117.25020729   179.01470229
 C      6   5   4     1.209940477875   178.13370030     7.66502221
 C      7   6   5     1.407669535083   179.00126350   170.21456246
 C      8   7   6     1.397712491895   120.34987170   354.19872640
 C      9   8   7     1.380826194711   119.77839165   180.21003037
 C     10   9   8     1.386913486848   120.21283228   359.83978019
 C     11  10   9     1.386854981604   120.17820755     0.07800457
 C     12  11  10     1.380899985517   120.22438290     0.08455612
 C      5   4   2     1.396979702787   123.69776803   358.97786779
 C     14   5   4     1.393948908676   118.35277050   359.73834624
 C     15  14   5     1.468970680443   122.15117844   179.28808665
 C     16  15  14     1.397008221164   118.53706876   201.01440542
 C     17  16  15     1.380854916347   120.41360988   179.72415223
 C     18  17  16     1.386122826448   120.03047794     0.50649192
 C     19  18  17     1.386404540529   119.94779471     0.21304194
 C     20  19  18     1.381863140836   120.35272743   359.42805201
 O     15  14   5     1.287178507434   121.87981749     0.33336731
 H      9   8   7     1.079901967773   119.45863538     0.03451984
 H     10   9   8     1.079851193452   119.80989019   179.86163658
 H     11  10   9     1.079693748245   119.89012660   180.06335326
 H     12  11  10     1.079613491024   119.98264211   180.02283970
 H     13  12  11     1.079435046680   120.90921105   179.95140607
 H     14   5   4     1.074020600361   119.62078124   178.24663773
 H     17  16  15     1.079016839535   118.62341274     0.18363142
 H     18  17  16     1.079446107965   119.88274305   180.36371353
 H     19  18  17     1.079761654255   120.10007515   179.86010635
 H     20  19  18     1.079756805952   119.92572976   179.23201110
 H     21  20  19     1.078655997063   119.49239500   178.48995085

---------------------------
INTERNAL COORDINATES (A.U.)
---------------------------
 F      0   0   0     0.000000000000     0.00000000     0.00000000
 B      1   0   0     2.571989732203     0.00000000     0.00000000
 F      2   1   0     2.576925262515   112.37700882     0.00000000
 O      2   1   3     2.842242822592   108.50739916   119.84415182
 C      4   2   1     2.429533354669   121.53692283   121.04622605
 C      5   4   2     2.671542194159   117.25020729   179.01470229
 C      6   5   4     2.286456141529   178.13370030     7.66502221
 C      7   6   5     2.660109908371   179.00126350   170.21456246
 C      8   7   6     2.641293823643   120.34987170   354.19872640
 C      9   8   7     2.609383346548   119.77839165   180.21003037
 C     10   9   8     2.620886661584   120.21283228   359.83978019
 C     11  10   9     2.620776102696   120.17820755     0.07800457
 C     12  11  10     2.609522790962   120.22438290     0.08455612
 C      5   4   2     2.639909052915   123.69776803   358.97786779
 C     14   5   4     2.634181682077   118.35277050   359.73834624
 C     15  14   5     2.775952284796   122.15117844   179.28808665
 C     16  15  14     2.639962944837   118.53706876   201.01440542
 C     17  16  15     2.609437622575   120.41360988   179.72415223
 C     18  17  16     2.619392529963   120.03047794     0.50649192
 C     19  18  17     2.619924892425   119.94779471     0.21304194
 C     20  19  18     2.611342890740   120.35272743   359.42805201
 O     15  14   5     2.432414864520   121.87981749     0.33336731
 H      9   8   7     2.040718970574   119.45863538     0.03451984
 H     10   9   8     2.040623021013   119.80989019   179.86163658
 H     11  10   9     2.040325492691   119.89012660   180.06335326
 H     12  11  10     2.040173828521   119.98264211   180.02283970
 H     13  12  11     2.039836617581   120.90921105   179.95140607
 H     14   5   4     2.029604796872   119.62078124   178.24663773
 H     17  16  15     2.039046320610   118.62341274     0.18363142
 H     18  17  16     2.039857520380   119.88274305   180.36371353
 H     19  18  17     2.040453816452   120.10007515   179.86010635
 H     20  19  18     2.040444654487   119.92572976   179.23201110
 H     21  20  19     2.038364427161   119.49239500   178.48995085

---------------------
BASIS SET INFORMATION
---------------------
There are 5 groups of distinct atoms

 Group   1 Type F   : 19s6p3d2f contracted to 5s4p3d2f pattern {88111/3111/111/11}
 Group   2 Type B   : 19s6p3d2f contracted to 5s4p3d2f pattern {88111/3111/111/11}
 Group   3 Type O   : 19s6p3d2f contracted to 5s4p3d2f pattern {88111/3111/111/11}
 Group   4 Type C   : 19s6p3d2f contracted to 5s4p3d2f pattern {88111/3111/111/11}
 Group   5 Type H   : 5s2p1d contracted to 3s2p1d pattern {311/11/1}

Atom   0F    basis set group =>   1
Atom   1B    basis set group =>   2
Atom   2F    basis set group =>   1
Atom   3O    basis set group =>   3
Atom   4C    basis set group =>   4
Atom   5C    basis set group =>   4
Atom   6C    basis set group =>   4
Atom   7C    basis set group =>   4
Atom   8C    basis set group =>   4
Atom   9C    basis set group =>   4
Atom  10C    basis set group =>   4
Atom  11C    basis set group =>   4
Atom  12C    basis set group =>   4
Atom  13C    basis set group =>   4
Atom  14C    basis set group =>   4
Atom  15C    basis set group =>   4
Atom  16C    basis set group =>   4
Atom  17C    basis set group =>   4
Atom  18C    basis set group =>   4
Atom  19C    basis set group =>   4
Atom  20C    basis set group =>   4
Atom  21O    basis set group =>   3
Atom  22H    basis set group =>   5
Atom  23H    basis set group =>   5
Atom  24H    basis set group =>   5
Atom  25H    basis set group =>   5
Atom  26H    basis set group =>   5
Atom  27H    basis set group =>   5
Atom  28H    basis set group =>   5
Atom  29H    basis set group =>   5
Atom  30H    basis set group =>   5
Atom  31H    basis set group =>   5
Atom  32H    basis set group =>   5
---------------------------------
AUXILIARY/J BASIS SET INFORMATION
---------------------------------
There are 5 groups of distinct atoms

 Group   1 Type F   : 10s7p5d2f1g contracted to 10s7p5d2f1g pattern {1111111111/1111111/11111/11/1}
 Group   2 Type B   : 10s7p5d2f1g contracted to 10s7p5d2f1g pattern {1111111111/1111111/11111/11/1}
 Group   3 Type O   : 10s7p5d2f1g contracted to 10s7p5d2f1g pattern {1111111111/1111111/11111/11/1}
 Group   4 Type C   : 10s7p5d2f1g contracted to 10s7p5d2f1g pattern {1111111111/1111111/11111/11/1}
 Group   5 Type H   : 4s3p2d1f contracted to 4s3p2d1f pattern {1111/111/11/1}

Atom   0F    basis set group =>   1
Atom   1B    basis set group =>   2
Atom   2F    basis set group =>   1
Atom   3O    basis set group =>   3
Atom   4C    basis set group =>   4
Atom   5C    basis set group =>   4
Atom   6C    basis set group =>   4
Atom   7C    basis set group =>   4
Atom   8C    basis set group =>   4
Atom   9C    basis set group =>   4
Atom  10C    basis set group =>   4
Atom  11C    basis set group =>   4
Atom  12C    basis set group =>   4
Atom  13C    basis set group =>   4
Atom  14C    basis set group =>   4
Atom  15C    basis set group =>   4
Atom  16C    basis set group =>   4
Atom  17C    basis set group =>   4
Atom  18C    basis set group =>   4
Atom  19C    basis set group =>   4
Atom  20C    basis set group =>   4
Atom  21O    basis set group =>   3
Atom  22H    basis set group =>   5
Atom  23H    basis set group =>   5
Atom  24H    basis set group =>   5
Atom  25H    basis set group =>   5
Atom  26H    basis set group =>   5
Atom  27H    basis set group =>   5
Atom  28H    basis set group =>   5
Atom  29H    basis set group =>   5
Atom  30H    basis set group =>   5
Atom  31H    basis set group =>   5
Atom  32H    basis set group =>   5
---------------------------------
AUXILIARY/C BASIS SET INFORMATION
---------------------------------
There are 5 groups of distinct atoms

 Group   1 Type F   : 9s7p6d4f2g contracted to 9s7p6d4f2g pattern {111111111/1111111/111111/1111/11}
 Group   2 Type B   : 9s7p6d4f2g contracted to 9s7p6d4f2g pattern {111111111/1111111/111111/1111/11}
 Group   3 Type O   : 9s7p6d4f2g contracted to 9s7p6d4f2g pattern {111111111/1111111/111111/1111/11}
 Group   4 Type C   : 9s7p6d4f2g contracted to 9s7p6d4f2g pattern {111111111/1111111/111111/1111/11}
 Group   5 Type H   : 4s3p2d1f contracted to 4s3p2d1f pattern {1111/111/11/1}

Atom   0F    basis set group =>   1
Atom   1B    basis set group =>   2
Atom   2F    basis set group =>   1
Atom   3O    basis set group =>   3
Atom   4C    basis set group =>   4
Atom   5C    basis set group =>   4
Atom   6C    basis set group =>   4
Atom   7C    basis set group =>   4
Atom   8C    basis set group =>   4
Atom   9C    basis set group =>   4
Atom  10C    basis set group =>   4
Atom  11C    basis set group =>   4
Atom  12C    basis set group =>   4
Atom  13C    basis set group =>   4
Atom  14C    basis set group =>   4
Atom  15C    basis set group =>   4
Atom  16C    basis set group =>   4
Atom  17C    basis set group =>   4
Atom  18C    basis set group =>   4
Atom  19C    basis set group =>   4
Atom  20C    basis set group =>   4
Atom  21O    basis set group =>   3
Atom  22H    basis set group =>   5
Atom  23H    basis set group =>   5
Atom  24H    basis set group =>   5
Atom  25H    basis set group =>   5
Atom  26H    basis set group =>   5
Atom  27H    basis set group =>   5
Atom  28H    basis set group =>   5
Atom  29H    basis set group =>   5
Atom  30H    basis set group =>   5
Atom  31H    basis set group =>   5
Atom  32H    basis set group =>   5


           ************************************************************
           *        Program running with 4 parallel MPI-processes     *
           *              working on a common directory               *
           ************************************************************
------------------------------------------------------------------------------
                           ORCA GTO INTEGRAL CALCULATION
                           -- RI-GTO INTEGRALS CHOSEN --
------------------------------------------------------------------------------
------------------------------------------------------------------------------
                   ___                                                        
                  /   \      - P O W E R E D   B Y -                         
                 /     \                                                     
                 |  |  |   _    _      __       _____    __    __             
                 |  |  |  | |  | |    /  \     |  _  \  |  |  /  |          
                  \  \/   | |  | |   /    \    | | | |  |  | /  /          
                 / \  \   | |__| |  /  /\  \   | |_| |  |  |/  /          
                |  |  |   |  __  | /  /__\  \  |    /   |      \           
                |  |  |   | |  | | |   __   |  |    \   |  |\   \          
                \     /   | |  | | |  |  |  |  | |\  \  |  | \   \       
                 \___/    |_|  |_| |__|  |__|  |_| \__\ |__|  \__/        
                                                                              
                      - O R C A' S   B I G   F R I E N D -                    
                                      &                                       
                       - I N T E G R A L  F E E D E R -                       
                                                                              
 v1 FN, 2020, v2 2021                                                         
------------------------------------------------------------------------------


Reading SHARK input file optpbed3-wb2plyp-train-2.SHARKINP.tmp ... ok
----------------------
SHARK INTEGRAL PACKAGE
----------------------

Number of atoms                             ...     33
Number of basis functions                   ...   1298
Number of shells                            ...    506
Maximum angular momentum                    ...      3
Integral batch strategy                     ... SHARK/LIBINT Hybrid
RI-J (if used) integral strategy            ... SPLIT-RIJ (Revised 2003 algorithm where possible)
Printlevel                                  ...      1
Contraction scheme used                     ... PARTIAL GENERAL contraction
Coulomb Range Separation                    ... NOT USED
Exchange Range Separation                   ... NOT USED
Finite Nucleus Model                        ... NOT USED
Auxiliary Coulomb fitting basis             ... AVAILABLE
   # of basis functions in Aux-J            ...   2068
   # of shells in Aux-J                     ...    660
   Maximum angular momentum in Aux-J        ...      4
Auxiliary J/K fitting basis                 ... NOT available
Auxiliary Correlation fitting basis         ... AVAILABLE
   # of basis functions in Aux-C            ...   2662
   # of shells in Aux-C                     ...    726
   Maximum angular momentum in Aux-C        ...      4
Auxiliary 'external' fitting basis          ... NOT available
Integral threshold                          ...     2.500000e-11
Primitive cut-off                           ...     2.500000e-12
Primitive pair pre-selection threshold      ...     2.500000e-12

Calculating pre-screening integrals         ... done (  0.4 sec) Dimension = 506
Calculating pre-screening integrals (ORCA)  ... done (  0.8 sec) Dimension = 374
Organizing shell pair data                  ... done (  1.0 sec)
Shell pair information
Total number of shell pairs                 ...    128271
Shell pairs after pre-screening             ...     73875
Total number of primitive shell pairs       ...    163977
Primitive shell pairs kept                  ...     85539
          la=0 lb=0:  16510 shell pairs
          la=1 lb=0:  19109 shell pairs
          la=1 lb=1:   4628 shell pairs
          la=2 lb=0:  12291 shell pairs
          la=2 lb=1:   6128 shell pairs
          la=2 lb=2:   2100 shell pairs
          la=3 lb=0:   6714 shell pairs
          la=3 lb=1:   3428 shell pairs
          la=3 lb=2:   2307 shell pairs
          la=3 lb=3:    660 shell pairs

Calculating one electron integrals          ... done (  0.3 sec)
Calculating RI/J V-Matrix + Cholesky decomp.... done (  0.4 sec)
Calculating RI/C V-Matrix + Cholesky decomp.... done (  0.7 sec)
Calculating Nuclear repulsion               ... done (  0.0 sec) ENN=   1537.737335514157 Eh

SHARK setup successfully completed in   5.4 seconds

Maximum memory used throughout the entire GTOINT-calculation: 122.5 MB


           ************************************************************
           *        Program running with 4 parallel MPI-processes     *
           *              working on a common directory               *
           ************************************************************
-------------------------------------------------------------------------------
                                 ORCA SCF
-------------------------------------------------------------------------------

------------
SCF SETTINGS
------------
Hamiltonian:
 Density Functional     Method          .... DFT(GTOs)
 Exchange Functional    Exchange        .... PBE
   PBE kappa parameter   XKappa         ....  0.804000
   PBE mue parameter    XMuePBE         ....  0.219520
 Correlation Functional Correlation     .... PBE
   PBE beta parameter  CBetaPBE         ....  0.066725
 LDA part of GGA corr.  LDAOpt          .... PW91-LDA
 Gradients option       PostSCFGGA      .... off
 Hybrid DFT is turned on
   Fraction HF Exchange ScalHFX         ....  0.250000
   Scaling of DF-GGA-X  ScalDFX         ....  0.750000
   Scaling of DF-GGA-C  ScalDFC         ....  1.000000
   Scaling of DF-LDA-C  ScalLDAC        ....  1.000000
   Perturbative correction              ....  0.000000
   Density functional embedding theory  .... OFF
   NL short-range parameter             ....  6.900000
 RI-approximation to the Coulomb term is turned on
   Number of AuxJ basis functions       .... 2068
   RIJ-COSX (HFX calculated with COS-X)).... on


General Settings:
 Integral files         IntName         .... optpbed3-wb2plyp-train-2
 Hartree-Fock type      HFTyp           .... RHF
 Total Charge           Charge          ....    0
 Multiplicity           Mult            ....    1
 Number of Electrons    NEL             ....  152
 Basis Dimension        Dim             .... 1166
 Nuclear Repulsion      ENuc            ....   1537.7373355142 Eh

Convergence Acceleration:
 DIIS                   CNVDIIS         .... on
   Start iteration      DIISMaxIt       ....    12
   Startup error        DIISStart       ....  0.200000
   # of expansion vecs  DIISMaxEq       ....     5
   Bias factor          DIISBfac        ....   1.050
   Max. coefficient     DIISMaxC        ....  10.000
 Trust-Rad. Augm. Hess. CNVTRAH         .... auto
   Auto Start mean grad. ratio tolernc. ....  1.125000
   Auto Start start iteration           ....    20
   Auto Start num. interpolation iter.  ....    10
   Max. Number of Micro iterations      ....    16
   Max. Number of Macro iterations      .... Maxiter - #DIIS iter
   Number of Davidson start vectors     ....     2
   Converg. threshold I  (grad. norm)   ....   1.000e-05
   Converg. threshold II (energy diff.) ....   1.000e-08
   Grad. Scal. Fac. for Micro threshold ....   0.100
   Minimum threshold for Micro iter.    ....   0.010
   NR start threshold (gradient norm)   ....   0.001
   Initial trust radius                 ....   0.400
   Minimum AH scaling param. (alpha)    ....   1.000
   Maximum AH scaling param. (alpha)    .... 1000.000
   Orbital update algorithm             .... Taylor
   White noise on init. David. guess    .... on
   Maximum white noise                  ....   0.010
   Quad. conv. algorithm                .... NR
 SOSCF                  CNVSOSCF        .... on
   Start iteration      SOSCFMaxIt      ....   150
   Startup grad/error   SOSCFStart      ....  0.003300
 Level Shifting         CNVShift        .... on
   Level shift para.    LevelShift      ....    0.2500
   Turn off err/grad.   ShiftErr        ....    0.0010
 Zerner damping         CNVZerner       .... off
 Static damping         CNVDamp         .... on
   Fraction old density DampFac         ....    0.7000
   Max. Damping (<1)    DampMax         ....    0.9800
   Min. Damping (>=0)   DampMin         ....    0.0000
   Turn off err/grad.   DampErr         ....    0.1000
 Fernandez-Rico         CNVRico         .... off

SCF Procedure:
 Maximum # iterations   MaxIter         ....   125
 SCF integral mode      SCFMode         .... Direct
   Integral package                     .... SHARK and LIBINT hybrid scheme
 Reset frequency        DirectResetFreq ....    20
 Integral Threshold     Thresh          ....  2.500e-11 Eh
 Primitive CutOff       TCut            ....  2.500e-12 Eh

Convergence Tolerance:
 Convergence Check Mode ConvCheckMode   .... Total+1el-Energy
 Convergence forced     ConvForced      .... 0
 Energy Change          TolE            ....  1.000e-08 Eh
 1-El. energy change                    ....  1.000e-05 Eh
 Orbital Gradient       TolG            ....  1.000e-05
 Orbital Rotation angle TolX            ....  1.000e-05
 DIIS Error             TolErr          ....  5.000e-07


Diagonalization of the overlap matrix:
Smallest eigenvalue                        ... 2.158e-07
Time for diagonalization                   ...    0.411 sec
Threshold for overlap eigenvalues          ... 1.000e-08
Number of eigenvalues below threshold      ... 0
Time for construction of square roots      ...    0.282 sec
Total time needed                          ...    0.700 sec

Time for model grid setup =    0.998 sec

------------------------------
INITIAL GUESS: MODEL POTENTIAL
------------------------------
Loading Hartree-Fock densities                     ... done
Calculating cut-offs                               ... done
Initializing the effective Hamiltonian             ... done
Setting up the integral package (SHARK)            ... done
Starting the Coulomb interaction                   ... done (   2.7 sec)
Reading the grid                                   ... done
Mapping shells                                     ... done
Starting the XC term evaluation                    ... done (   2.5 sec)
  promolecular density results
     # of electrons  =    151.995771397
     EX              =   -130.379107634
     EC              =     -5.103983875
     EX+EC           =   -135.483091509
Transforming the Hamiltonian                       ... done (   0.2 sec)
Diagonalizing the Hamiltonian                      ... done (   0.4 sec)
Back transforming the eigenvectors                 ... done (   0.1 sec)
Now organizing SCF variables                       ... done
                      ------------------
                      INITIAL GUESS DONE (   7.1 sec)
                      ------------------
-------------------
DFT GRID GENERATION
-------------------

General Integration Accuracy     IntAcc      ... 4.388
Radial Grid Type                 RadialGrid  ... OptM3 with GC (2021)
Angular Grid (max. ang.)         AngularGrid ... 4 (Lebedev-302)
Angular grid pruning method      GridPruning ... 4 (adaptive)
Weight generation scheme         WeightScheme... Becke
Basis function cutoff            BFCut       ... 1.0000e-11
Integration weight cutoff        WCut        ... 1.0000e-14
Angular grids for H and He will be reduced by one unit
Partially contracted basis set               ... off
Rotationally invariant grid construction     ... off

Total number of grid points                  ...   173128
Total number of batches                      ...     2721
Average number of points per batch           ...       63
Average number of grid points per atom       ...     5246
Time for grid setup =    3.260 sec

--------------------
COSX GRID GENERATION
--------------------

GRIDX 1
-------
General Integration Accuracy     IntAcc      ... 3.816
Radial Grid Type                 RadialGrid  ... OptM3 with GC (2021)
Angular Grid (max. ang.)         AngularGrid ... 1 (Lebedev-50)
Angular grid pruning method      GridPruning ... 4 (adaptive)
Weight generation scheme         WeightScheme... Becke
Basis function cutoff            BFCut       ... 1.0000e-11
Integration weight cutoff        WCut        ... 1.0000e-14
Angular grids for H and He will be reduced by one unit
Partially contracted basis set               ... on
Rotationally invariant grid construction     ... off

Total number of grid points                  ...    22045
Total number of batches                      ...      361
Average number of points per batch           ...       61
Average number of grid points per atom       ...      668
UseSFitting                                  ... on

GRIDX 2
-------
General Integration Accuracy     IntAcc      ... 4.020
Radial Grid Type                 RadialGrid  ... OptM3 with GC (2021)
Angular Grid (max. ang.)         AngularGrid ... 2 (Lebedev-110)
Angular grid pruning method      GridPruning ... 4 (adaptive)
Weight generation scheme         WeightScheme... Becke
Basis function cutoff            BFCut       ... 1.0000e-11
Integration weight cutoff        WCut        ... 1.0000e-14
Angular grids for H and He will be reduced by one unit
Partially contracted basis set               ... on
Rotationally invariant grid construction     ... off

Total number of grid points                  ...    53820
Total number of batches                      ...      859
Average number of points per batch           ...       62
Average number of grid points per atom       ...     1631
UseSFitting                                  ... on

GRIDX 3
-------
General Integration Accuracy     IntAcc      ... 4.338
Radial Grid Type                 RadialGrid  ... OptM3 with GC (2021)
Angular Grid (max. ang.)         AngularGrid ... 3 (Lebedev-194)
Angular grid pruning method      GridPruning ... 4 (adaptive)
Weight generation scheme         WeightScheme... Becke
Basis function cutoff            BFCut       ... 1.0000e-11
Integration weight cutoff        WCut        ... 1.0000e-14
Angular grids for H and He will be reduced by one unit
Partially contracted basis set               ... on
Rotationally invariant grid construction     ... off

Total number of grid points                  ...   116159
Total number of batches                      ...     1831
Average number of points per batch           ...       63
Average number of grid points per atom       ...     3520
UseSFitting                                  ... on

Time for X-Grid setup             =    9.236 sec


--------------------
CPCM SOLVATION MODEL
--------------------
CPCM parameters:
  Epsilon                                         ...       8.9300
  Refrac                                          ...       1.4242
  Rsolv                                           ...       1.3000
  Surface type                                    ... GAUSSIAN VDW
  Epsilon function type                           ...         CPCM
Solvent:                                     ... DICHLOROMETHANE
SMD-CDS solvent descriptors:
  Soln                                       ...    1.4242
  Soln25                                     ...    1.4212
  Sola                                       ...    0.1000
  Solb                                       ...    0.0500
  Solg                                       ...   39.1500
  Solc                                       ...    0.0000
  Solh                                       ...    0.6670
Radii:
 Radius for F  used is    3.2692 Bohr (=   1.7300 Ang.)
 Radius for B  used is    3.6283 Bohr (=   1.9200 Ang.)
 Radius for O  used is    3.9949 Bohr (=   2.1140 Ang.)
 Radius for C  used is    3.4960 Bohr (=   1.8500 Ang.)
 Radius for H  used is    2.2677 Bohr (=   1.2000 Ang.)
Calculating surface                               ...        done! (  0.0s)
GEPOL surface points                              ...         1896
GEPOL Volume                                      ...    2024.1645
GEPOL Surface-area                                ...    1130.6549
Calculating surface distance matrix               ...        done! (  0.1s)
Performing Cholesky decomposition & store         ...        done! (  0.3s)
Overall time for CPCM initialization              ...                 0.3s
 re-compute Schwartz prescreening matrix in partically contracted basis (1) ...done (   0.297 sec)
--------------
SCF ITERATIONS
--------------
ITER       Energy         Delta-E        Max-DP      RMS-DP      [F,P]     Damp
               ***  Starting incremental Fock matrix formation  ***
  0  -1028.3636923227   0.000000000000 0.57232510  0.00156440  0.2071268 0.7000
  1  -1028.5466422059  -0.182949883171 0.44513344  0.00116312  0.0915775 0.7000
                               ***Turning on DIIS***
  2  -1028.6283487720  -0.081706566081 1.03320574  0.00252358  0.0412554 0.0000
  3  -1028.7555246649  -0.127175892904 0.06317397  0.00048799  0.0447567 0.0000
  4  -1028.7802972115  -0.024772546615 0.02112047  0.00017479  0.0084651 0.0000
  5  -1028.7813122600  -0.001015048508 0.06947173  0.00015829  0.0049835 0.0000
                      *** Initiating the SOSCF procedure ***
                           *** Shutting down DIIS ***
                      *** Re-Reading the Fockian *** 
                      *** Removing any level shift *** 
ITER      Energy       Delta-E        Grad      Rot      Max-DP    RMS-DP
  6  -1028.78140905  -0.0000967864  0.000244  0.000244  0.062486  0.000137
               *** Restarting incremental Fock matrix formation ***
  7  -1028.78143455  -0.0000254989  0.000168  0.000812  0.065703  0.000526
  8  -1028.78143678  -0.0000022318  0.000091  0.000322  0.017445  0.000145
  9  -1028.78143720  -0.0000004188  0.000054  0.000148  0.109257  0.000229
 10  -1028.78143747  -0.0000002764  0.000017  0.000049  0.039988  0.000140
 11  -1028.78143743   0.0000000401  0.000018  0.000035  0.018615  0.000077
 12  -1028.78143748  -0.0000000482  0.000008  0.000023  0.103125  0.000220
 13  -1028.78143750  -0.0000000233  0.000008  0.000014  0.027878  0.000105
                  ***Gradient check signals convergence***
              ***Rediagonalizing the Fockian in SOSCF/NRSCF***

               *****************************************************
               *                     SUCCESS                       *
               *           SCF CONVERGED AFTER  14 CYCLES          *
               *****************************************************

Old exchange energy                            =    -33.177831289 Eh
New exchange energy                            =    -33.177827047 Eh
Exchange energy change after final integration =      0.000004241 Eh
Total energy after final integration           =  -1028.781433256 Eh
Final COS-X integration done in                =   162.002 sec

SMD CDS free energy correction energy :                -6.50691     Kcal/mol
Total Energy after SMD CDS correction =             -1028.791802683 Eh

----------------
TOTAL SCF ENERGY
----------------

Total Energy       :        -1028.79180268 Eh          -27994.84818 eV

Components:
Nuclear Repulsion  :         1537.73733551 Eh           41843.96021 eV
Electronic Energy  :        -2566.52913820 Eh          -69838.80839 eV
One Electron Energy:        -4458.68115223 Eh         -121326.88229 eV
Two Electron Energy:         1892.15201403 Eh           51488.07390 eV
Max COSX asymmetry :            0.00004452 Eh               0.00121 eV
CPCM Dielectric    :           -0.02787667 Eh              -0.75856 eV
SMD CDS (Gcds)     :           -0.01036943 Eh              -0.28217 eV

Virial components:
Potential Energy   :        -2052.07791976 Eh          -55839.87904 eV
Kinetic Energy     :         1023.28611707 Eh           27845.03086 eV
Virial Ratio       :            2.00538040


DFT components:
N(Alpha)           :       76.000033016930 electrons
N(Beta)            :       76.000033016930 electrons
N(Total)           :      152.000066033860 electrons
E(X)               :      -99.325507407624 Eh       
E(C)               :       -5.112280813570 Eh       
E(XC)              :     -104.437788221194 Eh       
DFET-embed. en.    :        0.000000000000 Eh       
CPCM Solvation Model Properties:
Surface-charge          :           -0.05487982
Charge-correction       :            0.00017061 Eh               0.00464 eV
Free-energy (cav+disp)  :           -0.01036943 Eh              -0.28217 eV

---------------
SCF CONVERGENCE
---------------

  Last Energy change         ...    6.3410e-09  Tolerance :   1.0000e-08
  Last MAX-Density change    ...    3.1086e-15  Tolerance :   1.0000e-07
  Last RMS-Density change    ...    1.7626e-17  Tolerance :   5.0000e-09
  Last Orbital Gradient      ...    2.3194e-06  Tolerance :   1.0000e-05
  Last Orbital Rotation      ...    8.8281e-06  Tolerance :   1.0000e-05

             **** THE GBW FILE WAS UPDATED (optpbed3-wb2plyp-train-2.gbw) ****
             **** DENSITY optpbed3-wb2plyp-train-2.scfp WAS UPDATED ****
             **** ENERGY FILE WAS UPDATED (optpbed3-wb2plyp-train-2.en.tmp) ****
             **** THE GBW FILE WAS UPDATED (optpbed3-wb2plyp-train-2.gbw) ****
             **** DENSITY optpbed3-wb2plyp-train-2.scfp WAS UPDATED ****
----------------
ORBITAL ENERGIES
----------------

  NO   OCC          E(Eh)            E(eV) 
   0   2.0000     -24.742129      -673.2676 
   1   2.0000     -24.741421      -673.2483 
   2   2.0000     -19.260518      -524.1053 
   3   2.0000     -19.258345      -524.0462 
   4   2.0000     -10.358454      -281.8679 
   5   2.0000     -10.345727      -281.5215 
   6   2.0000     -10.268011      -279.4068 
   7   2.0000     -10.266921      -279.3771 
   8   2.0000     -10.256067      -279.0818 
   9   2.0000     -10.249787      -278.9109 
  10   2.0000     -10.246612      -278.8245 
  11   2.0000     -10.246192      -278.8131 
  12   2.0000     -10.245614      -278.7973 
  13   2.0000     -10.242840      -278.7218 
  14   2.0000     -10.242421      -278.7104 
  15   2.0000     -10.242002      -278.6990 
  16   2.0000     -10.241392      -278.6825 
  17   2.0000     -10.238516      -278.6042 
  18   2.0000     -10.238256      -278.5971 
  19   2.0000     -10.237284      -278.5707 
  20   2.0000     -10.236699      -278.5547 
  21   2.0000      -6.886157      -187.3818 
  22   2.0000      -1.232282       -33.5321 
  23   2.0000      -1.196264       -32.5520 
  24   2.0000      -1.139523       -31.0080 
  25   2.0000      -1.112940       -30.2846 
  26   2.0000      -0.909951       -24.7610 
  27   2.0000      -0.905417       -24.6376 
  28   2.0000      -0.854889       -23.2627 
  29   2.0000      -0.830584       -22.6013 
  30   2.0000      -0.805095       -21.9077 
  31   2.0000      -0.787678       -21.4338 
  32   2.0000      -0.786529       -21.4025 
  33   2.0000      -0.775306       -21.0971 
  34   2.0000      -0.721164       -19.6239 
  35   2.0000      -0.689339       -18.7579 
  36   2.0000      -0.654988       -17.8231 
  37   2.0000      -0.640692       -17.4341 
  38   2.0000      -0.638739       -17.3810 
  39   2.0000      -0.626765       -17.0552 
  40   2.0000      -0.598167       -16.2770 
  41   2.0000      -0.578537       -15.7428 
  42   2.0000      -0.567478       -15.4419 
  43   2.0000      -0.542248       -14.7553 
  44   2.0000      -0.534540       -14.5456 
  45   2.0000      -0.533670       -14.5219 
  46   2.0000      -0.513292       -13.9674 
  47   2.0000      -0.502537       -13.6747 
  48   2.0000      -0.492455       -13.4004 
  49   2.0000      -0.488613       -13.2958 
  50   2.0000      -0.478577       -13.0227 
  51   2.0000      -0.467394       -12.7184 
  52   2.0000      -0.457744       -12.4559 
  53   2.0000      -0.457062       -12.4373 
  54   2.0000      -0.454845       -12.3769 
  55   2.0000      -0.446930       -12.1616 
  56   2.0000      -0.446026       -12.1370 
  57   2.0000      -0.433561       -11.7978 
  58   2.0000      -0.426455       -11.6044 
  59   2.0000      -0.418698       -11.3934 
  60   2.0000      -0.411299       -11.1920 
  61   2.0000      -0.403127       -10.9697 
  62   2.0000      -0.400562       -10.8998 
  63   2.0000      -0.392024       -10.6675 
  64   2.0000      -0.379933       -10.3385 
  65   2.0000      -0.378600       -10.3022 
  66   2.0000      -0.370775       -10.0893 
  67   2.0000      -0.363831        -9.9004 
  68   2.0000      -0.349063        -9.4985 
  69   2.0000      -0.345483        -9.4011 
  70   2.0000      -0.315675        -8.5900 
  71   2.0000      -0.303072        -8.2470 
  72   2.0000      -0.283923        -7.7259 
  73   2.0000      -0.281961        -7.6726 
  74   2.0000      -0.281883        -7.6704 
  75   2.0000      -0.255064        -6.9407 
  76   0.0000      -0.109596        -2.9823 
  77   0.0000      -0.048180        -1.3110 
  78   0.0000      -0.020267        -0.5515 
  79   0.0000      -0.019121        -0.5203 
  80   0.0000      -0.006391        -0.1739 
  81   0.0000      -0.000258        -0.0070 
  82   0.0000       0.008224         0.2238 
  83   0.0000       0.015271         0.4156 
  84   0.0000       0.019609         0.5336 
  85   0.0000       0.024151         0.6572 
  86   0.0000       0.026037         0.7085 
  87   0.0000       0.026408         0.7186 
  88   0.0000       0.034263         0.9323 
  89   0.0000       0.034947         0.9510 
  90   0.0000       0.039792         1.0828 
  91   0.0000       0.042132         1.1465 
  92   0.0000       0.047447         1.2911 
  93   0.0000       0.048499         1.3197 
  94   0.0000       0.049946         1.3591 
  95   0.0000       0.052744         1.4352 
  96   0.0000       0.055304         1.5049 
  97   0.0000       0.060388         1.6432 
  98   0.0000       0.061933         1.6853 
  99   0.0000       0.070040         1.9059 
 100   0.0000       0.071036         1.9330 
 101   0.0000       0.074057         2.0152 
 102   0.0000       0.080252         2.1838 
 103   0.0000       0.081703         2.2232 
 104   0.0000       0.082154         2.2355 
 105   0.0000       0.088980         2.4213 
 106   0.0000       0.094966         2.5841 
 107   0.0000       0.096581         2.6281 
 108   0.0000       0.099862         2.7174 
 109   0.0000       0.100880         2.7451 
 110   0.0000       0.103820         2.8251 
 111   0.0000       0.106889         2.9086 
 112   0.0000       0.109401         2.9770 
 113   0.0000       0.113420         3.0863 
 114   0.0000       0.114946         3.1278 
 115   0.0000       0.117168         3.1883 
 116   0.0000       0.119326         3.2470 
 117   0.0000       0.123968         3.3733 
 118   0.0000       0.124613         3.3909 
 119   0.0000       0.127950         3.4817 
 120   0.0000       0.128282         3.4907 
 121   0.0000       0.131144         3.5686 
 122   0.0000       0.133940         3.6447 
 123   0.0000       0.135201         3.6790 
 124   0.0000       0.139345         3.7918 
 125   0.0000       0.142655         3.8819 
 126   0.0000       0.143030         3.8920 
[...]

                       ****Iteration    1****
   Time for densities:            0.348
   Time for RI-J (Direct):       13.988
   Time for K (COSX):            62.523
   Time for XC-Integration:      19.603
   Time for LR-CPCM terms:       11.930
   Time for Sigma-Completion:     0.245
   Size of expansion space: 40
   Lowest Energy          :     0.143327557481
   Maximum Energy change  :     0.028838912012 (vector 5)
   Maximum residual norm  :     0.003071409637

                       ****Iteration    2****
   Time for densities:            0.343
   Time for RI-J (Direct):       13.826
   Time for K (COSX):            62.572
   Time for XC-Integration:      19.499
   Time for LR-CPCM terms:       12.063
   Time for Sigma-Completion:     0.242
   Size of expansion space: 50
   Lowest Energy          :     0.141102145562
   Maximum Energy change  :     0.007037623652 (vector 5)
   Maximum residual norm  :     0.000722624993

                       ****Iteration    3****
   Time for densities:            0.323
   Time for RI-J (Direct):       13.853
   Time for K (COSX):            63.019
   Time for XC-Integration:      19.696
   Time for LR-CPCM terms:       12.104
   Time for Sigma-Completion:     0.261
   Size of expansion space: 60
   Lowest Energy          :     0.140903954075
   Maximum Energy change  :     0.003000912342 (vector 9)
   Maximum residual norm  :     0.001636323964

                       ****Iteration    4****
   Time for densities:            0.345
   Time for RI-J (Direct):       13.948
   Time for K (COSX):            63.100
   Time for XC-Integration:      20.281
   Time for LR-CPCM terms:       12.036
   Time for Sigma-Completion:     0.243
   Size of expansion space: 70
   Lowest Energy          :     0.140861019832
   Maximum Energy change  :     0.004738305102 (vector 9)
   Maximum residual norm  :     0.000602070256
   Rebuilding the expansion space

                       ****Iteration    5****
   Time for densities:            0.688
   Time for RI-J (Direct):       18.899
   Time for K (COSX):           106.688
   Time for XC-Integration:      39.086
   Time for LR-CPCM terms:       19.093
   Time for Sigma-Completion:     0.536
   Size of expansion space: 20
   Lowest Energy          :     0.140854958510
   Maximum Energy change  :     0.001042791877 (vector 8)
   Maximum residual norm  :     0.000200766364

                       ****Iteration    6****
   Time for densities:            0.335
   Time for RI-J (Direct):       13.931
   Time for K (COSX):            63.009
   Time for XC-Integration:      20.349
   Time for LR-CPCM terms:       12.084
   Time for Sigma-Completion:     0.277
   Size of expansion space: 30
   Lowest Energy          :     0.140854256464
   Maximum Energy change  :     0.000615162736 (vector 8)
   Maximum residual norm  :     0.000238236679

                       ****Iteration    7****
   Time for densities:            0.332
   Time for RI-J (Direct):       14.036
   Time for K (COSX):            62.997
   Time for XC-Integration:      20.444
   Time for LR-CPCM terms:       12.022
   Time for Sigma-Completion:     0.270
   Size of expansion space: 40
   Lowest Energy          :     0.140854139653
   Maximum Energy change  :     0.007037630135 (vector 6)
   Maximum residual norm  :     0.002619544459

                       ****Iteration    8****
   Time for densities:            0.342
   Time for RI-J (Direct):       14.098
   Time for K (COSX):            62.903
   Time for XC-Integration:      20.836
   Time for LR-CPCM terms:       12.044
   Time for Sigma-Completion:     0.257
   Size of expansion space: 50
   Lowest Energy          :     0.140854124677
   Maximum Energy change  :     0.003480889270 (vector 6)
   Maximum residual norm  :     0.000433390633

                       ****Iteration    9****
   Time for densities:            0.329
   Time for RI-J (Direct):       13.982
   Time for K (COSX):            62.953
   Time for XC-Integration:      20.482
   Time for LR-CPCM terms:       12.067
   Time for Sigma-Completion:     0.266
   Size of expansion space: 60
   Lowest Energy          :     0.140854122584
   Maximum Energy change  :     0.000802999543 (vector 6)
   Maximum residual norm  :     0.000081233419

                       ****Iteration   10****
   Time for densities:            0.341
   Time for RI-J (Direct):       14.116
   Time for K (COSX):            63.147
   Time for XC-Integration:      20.680
   Time for LR-CPCM terms:       12.044
   Time for Sigma-Completion:     0.252
   Size of expansion space: 70
   Lowest Energy          :     0.140854122462
   Maximum Energy change  :     0.000227700642 (vector 7)
   Maximum residual norm  :     0.000036556826
   Rebuilding the expansion space

                       ****Iteration   11****
   Time for densities:            0.672
   Time for RI-J (Direct):       19.052
   Time for K (COSX):           107.021
   Time for XC-Integration:      39.096
   Time for LR-CPCM terms:       19.194
   Time for Sigma-Completion:     0.504
   Size of expansion space: 20
   Lowest Energy          :     0.140854128635
   Maximum Energy change  :     0.000052231471 (vector 7)
   Maximum residual norm  :     0.000009913680

                       ****Iteration   12****
   Time for densities:            0.335
   Time for RI-J (Direct):       14.215
   Time for K (COSX):            64.244
   Time for XC-Integration:      21.977
   Time for LR-CPCM terms:       12.292
   Time for Sigma-Completion:     0.260
   Size of expansion space: 30
   Lowest Energy          :     0.140854128632
   Maximum Energy change  :     0.000022137490 (vector 7)
   Maximum residual norm  :     0.000003528904

                       ****Iteration   13****
   Time for densities:            0.336
   Time for RI-J (Direct):       14.267
   Time for K (COSX):            63.922
   Time for XC-Integration:      21.519
   Time for LR-CPCM terms:       12.210
   Time for Sigma-Completion:     0.284
   Size of expansion space: 40
   Lowest Energy          :     0.140854128632
   Maximum Energy change  :     0.000007228444 (vector 7)
   Maximum residual norm  :     0.000001265273

                       ****Iteration   14****
   Time for densities:            0.325
   Time for RI-J (Direct):       14.203
   Time for K (COSX):            63.192
   Time for XC-Integration:      21.805
   Time for LR-CPCM terms:       12.196
   Time for Sigma-Completion:     0.247
   Size of expansion space: 50
   Lowest Energy          :     0.140854128632
   Maximum Energy change  :     0.000002450451 (vector 7)
   Maximum residual norm  :     0.000000431615

      *** CONVERGENCE OF RESIDUAL NORM REACHED ***

Storing the converged CI vectors               ... optpbed3-wb2plyp-train-2_job2.cis1

                 *** DAVIDSON DONE ***

Total time for solving the CIS problem:  1964.550sec

------------------
DOUBLES CORRECTION (Double precision version)
------------------

The (D) correction will be scaled by  0.2700
Doing v(i,a)*T(i,a) terms (RI)                    ... ok
Doing u(i,j,a,b) terms for state   0              ... ok
Doing u(i,j,a,b) terms for state   1              ... ok
Doing u(i,j,a,b) terms for state   2              ... ok
Doing u(i,j,a,b) terms for state   3              ... ok
Doing u(i,j,a,b) terms for state   4              ... ok
Doing u(i,j,a,b) terms for state   5              ... ok
Doing u(i,j,a,b) terms for state   6              ... ok
Doing u(i,j,a,b) terms for state   7              ... ok
Doing u(i,j,a,b) terms for state   8              ... ok
Doing u(i,j,a,b) terms for state   9              ... ok

Contributions to the (D) correction(s) (in eV)

STATE  Final   Init.   Total   v(ext)   v(int)  v(3)    u
       omega   omega     (D)                             
-----------------------------------------------------------------------------
   0   3.631   3.833  -0.201   0.562   0.814  -0.041  -1.537
   1   4.890   4.880   0.009   0.559   0.741  -0.027  -1.264
   2   4.771   5.037  -0.265   0.520   0.797  -0.056  -1.526
   3   4.730   5.048  -0.318   0.512   0.783  -0.043  -1.569
   4   4.981   5.296  -0.315   0.474   0.778  -0.032  -1.534
   5   5.354   5.739  -0.385   0.523   0.787  -0.075  -1.620
   6   5.470   6.098  -0.629   0.573   0.741  -0.020  -1.922
   7   6.352   6.375  -0.023   0.352   0.808  -0.025  -1.159
   8   6.256   6.404  -0.148   0.425   0.786  -0.045  -1.314
   9   6.289   6.528  -0.239   0.325   0.797  -0.033  -1.328

(D)-timings
 V(i,a)*T(i,a) terms           ...  1079.025 sec
 U(i,j,a,b) 3-internal         ...    17.013 sec
 U(i,j,a,b) 3-external         ...   430.697 sec
 U(i,j,a,b) pair terms         ...   654.044 sec
 Total measured time           ...  5111.011 sec

 Time for (ab|v) I/O           ...   121.745 sec


------------------------------------
TD-DFT/TDA EXCITED STATES (SINGLETS)
------------------------------------

the weight of the individual excitations are printed if larger than 1.0e-02

STATE  1:  E=   0.133455 au      3.631 eV    29290.0 cm**-1 <S**2> =   0.000000
    71a ->  76a  :     0.038119 (c= -0.19523962)
    74a ->  76a  :     0.020423 (c= -0.14290834)
    74a ->  78a  :     0.032541 (c= -0.18039200)
    75a ->  76a  :     0.822258 (c=  0.90678456)

STATE  2:  E=   0.179689 au      4.890 eV    39437.3 cm**-1 <S**2> =   0.000000
    70a ->  76a  :     0.762572 (c= -0.87325359)
    70a ->  78a  :     0.110499 (c=  0.33241371)

STATE  3:  E=   0.175340 au      4.771 eV    38482.8 cm**-1 <S**2> =   0.000000
    69a ->  76a  :     0.034428 (c= -0.18554874)
    73a ->  78a  :     0.028402 (c=  0.16852775)
    74a ->  76a  :     0.631887 (c=  0.79491341)
    74a ->  78a  :     0.013667 (c=  0.11690738)
    75a ->  78a  :     0.119809 (c= -0.34613402)

STATE  4:  E=   0.173827 au      4.730 eV    38150.7 cm**-1 <S**2> =   0.000000
    72a ->  76a  :     0.057741 (c= -0.24029457)
    73a ->  76a  :     0.583693 (c= -0.76399776)
    73a ->  78a  :     0.110670 (c= -0.33267072)
    74a ->  78a  :     0.017358 (c= -0.13174928)
    74a ->  87a  :     0.015313 (c= -0.12374728)
    74a ->  89a  :     0.019364 (c=  0.13915289)
    75a ->  78a  :     0.038074 (c= -0.19512653)

STATE  5:  E=   0.183038 au      4.981 eV    40172.2 cm**-1 <S**2> =   0.000000
    72a ->  76a  :     0.386819 (c= -0.62194764)
    72a ->  78a  :     0.198158 (c=  0.44514971)
    72a ->  81a  :     0.016479 (c= -0.12836862)
    72a ->  87a  :     0.021720 (c=  0.14737794)
    72a ->  96a  :     0.015753 (c= -0.12551128)
    73a ->  76a  :     0.037776 (c=  0.19436078)
    73a ->  78a  :     0.021328 (c= -0.14604118)
    74a ->  88a  :     0.033363 (c= -0.18265591)
    75a ->  87a  :     0.028202 (c= -0.16793532)
    75a ->  88a  :     0.089599 (c= -0.29933119)

STATE  6:  E=   0.196738 au      5.354 eV    43178.9 cm**-1 <S**2> =   0.000000
    63a ->  76a  :     0.010655 (c= -0.10322228)
    69a ->  76a  :     0.023820 (c= -0.15433673)
    71a ->  76a  :     0.662108 (c=  0.81370011)
    71a ->  78a  :     0.016993 (c=  0.13035794)
    72a ->  88a  :     0.013707 (c= -0.11707584)
    73a ->  87a  :     0.023036 (c=  0.15177488)
    73a ->  89a  :     0.018486 (c= -0.13596417)
    74a ->  78a  :     0.073195 (c= -0.27054613)

STATE  7:  E=   0.201012 au      5.470 eV    44117.0 cm**-1 <S**2> =   0.000000
    64a ->  76a  :     0.051784 (c=  0.22756035)
    67a ->  76a  :     0.090974 (c=  0.30161890)
    68a ->  76a  :     0.657627 (c=  0.81094186)
    68a ->  78a  :     0.022085 (c=  0.14860951)
    69a ->  76a  :     0.021259 (c=  0.14580309)

STATE  8:  E=   0.233425 au      6.352 eV    51230.8 cm**-1 <S**2> =   0.000000
    69a -> 105a  :     0.026597 (c=  0.16308600)
    69a -> 106a  :     0.018438 (c= -0.13578577)
    69a -> 108a  :     0.017735 (c= -0.13317104)
    69a -> 111a  :     0.019512 (c=  0.13968690)
    73a ->  76a  :     0.010333 (c= -0.10165012)
    74a ->  76a  :     0.020633 (c=  0.14364232)
    75a ->  77a  :     0.165791 (c=  0.40717454)
    75a ->  78a  :     0.059404 (c=  0.24372924)
    75a -> 104a  :     0.030886 (c= -0.17574377)
    75a -> 105a  :     0.111947 (c= -0.33458431)
    75a -> 106a  :     0.082955 (c=  0.28801852)
    75a -> 108a  :     0.046952 (c=  0.21668387)
    75a -> 109a  :     0.033333 (c=  0.18257323)
    75a -> 111a  :     0.061388 (c= -0.24776602)

STATE  9:  E=   0.229893 au      6.256 eV    50455.6 cm**-1 <S**2> =   0.000000
    68a ->  76a  :     0.021522 (c= -0.14670302)
    69a ->  76a  :     0.100522 (c=  0.31705157)
    72a ->  87a  :     0.043167 (c= -0.20776772)
    72a ->  88a  :     0.158744 (c= -0.39842732)
    72a ->  92a  :     0.012713 (c= -0.11275279)
    73a ->  88a  :     0.019169 (c=  0.13845372)
    74a ->  76a  :     0.031021 (c= -0.17612845)
    74a ->  87a  :     0.027647 (c= -0.16627344)
    74a ->  96a  :     0.014705 (c=  0.12126398)
    75a ->  78a  :     0.188167 (c= -0.43378245)
    75a ->  81a  :     0.020762 (c=  0.14409084)
    75a ->  87a  :     0.013535 (c= -0.11634021)
    75a ->  95a  :     0.012953 (c=  0.11381281)
    75a ->  96a  :     0.014507 (c=  0.12044643)
    75a -> 105a  :     0.012354 (c= -0.11114936)
    75a -> 106a  :     0.015508 (c=  0.12453309)

STATE 10:  E=   0.231118 au      6.289 eV    50724.5 cm**-1 <S**2> =   0.000000
    69a ->  76a  :     0.031094 (c=  0.17633514)
    71a ->  78a  :     0.025823 (c= -0.16069681)
    72a ->  87a  :     0.015835 (c= -0.12583583)
    72a ->  88a  :     0.026160 (c= -0.16173941)
    73a ->  76a  :     0.083478 (c= -0.28892478)
    73a ->  78a  :     0.010120 (c=  0.10059791)
    74a ->  76a  :     0.016500 (c=  0.12845238)
    74a ->  78a  :     0.040988 (c= -0.20245397)
    74a ->  79a  :     0.016489 (c= -0.12840899)
    74a ->  87a  :     0.040116 (c=  0.20028904)
    74a ->  88a  :     0.037495 (c= -0.19363539)
    74a ->  89a  :     0.028237 (c= -0.16803959)
    75a ->  77a  :     0.105642 (c= -0.32502608)
    75a ->  78a  :     0.164021 (c=  0.40499478)
    75a ->  84a  :     0.012284 (c=  0.11083253)
    75a ->  87a  :     0.091818 (c= -0.30301553)
    75a ->  88a  :     0.016038 (c=  0.12663936)


-----------------------------
TD-DFT/TDA-EXCITATION SPECTRA
-----------------------------

Center of mass = (  0.2127,  0.6428,  1.0264)
Calculating the Dipole integrals                  ... done
Transforming integrals                            ... done
Calculating the Linear Momentum integrals         ... done
Transforming integrals                            ... done
Calculating angular momentum integrals            ... done
Transforming integrals                            ... done

-----------------------------------------------------------------------------
         ABSORPTION SPECTRUM VIA TRANSITION ELECTRIC DIPOLE MOMENTS
-----------------------------------------------------------------------------
State   Energy    Wavelength  fosc         T2        TX        TY        TZ  
        (cm-1)      (nm)                 (au**2)    (au)      (au)      (au) 
-----------------------------------------------------------------------------
   1   29290.0    341.4   1.471594818  16.54033   3.98278   0.82237  -0.03843
   2   39437.3    253.6   0.002659137   0.02220  -0.14445  -0.00501   0.03616
   3   38482.8    259.9   0.287180825   2.45677   0.16516   0.85243   1.30493
   4   38150.7    262.1   0.030372585   0.26209  -0.43661   0.00425   0.26729
   5   40172.2    248.9   0.037071966   0.30381   0.24749  -0.13482  -0.47369
   6   43178.9    231.6   0.016546678   0.12616   0.29662  -0.06179  -0.18535
   7   44117.0    226.7   0.000544089   0.00406   0.02318   0.01138   0.05825
   8   51230.8    195.2   0.006506401   0.04181  -0.05917   0.07358   0.18137
   9   50455.6    198.2   0.023815961   0.15539  -0.17489  -0.16456  -0.31261
  10   50724.5    197.1   0.102960422   0.66823  -0.75540  -0.30790   0.05293

-----------------------------------------------------------------------------
         ABSORPTION SPECTRUM VIA TRANSITION VELOCITY DIPOLE MOMENTS
-----------------------------------------------------------------------------
State   Energy    Wavelength   fosc        P2         PX        PY        PZ  
        (cm-1)      (nm)                 (au**2)     (au)      (au)      (au) 
-----------------------------------------------------------------------------
   1   29290.0    341.4   0.990003671   0.19818  -0.43492  -0.09469  -0.00765
   2   39437.3    253.6   0.001713898   0.00046   0.01943   0.00752  -0.00527
   3   38482.8    259.9   0.092676439   0.02437  -0.03343  -0.08976  -0.12329
   4   38150.7    262.1   0.024843934   0.00648   0.02235  -0.04111  -0.06549
   5   40172.2    248.9   0.002171619   0.00060  -0.01240   0.00536   0.02034
   6   43178.9    231.6   0.034477296   0.01017  -0.09706   0.00101   0.02743
   7   44117.0    226.7   0.001623342   0.00049   0.00387  -0.01908  -0.01050
   8   51230.8    195.2   0.001763031   0.00062   0.00028  -0.01883  -0.01621
   9   50455.6    198.2   0.012990536   0.00448   0.04744   0.03297   0.03379
  10   50724.5    197.1   0.035114493   0.01217   0.10559   0.02549  -0.01932

-------------------------------------------------------------------
                             CD SPECTRUM
-------------------------------------------------------------------
State  Energy     Wavelength     R         MX        MY        MZ   
       (cm-1)       (nm)     (1e40*cgs)   (au)      (au)      (au)  
-------------------------------------------------------------------
   1   29290.0    341.4     10.14617  -0.02595   0.14692  -0.10583
   2   39437.3    253.6     -4.91884   0.08097   0.01909   0.03755
   3   38482.8    259.9     17.44498  -0.01230  -0.04503   0.05933
   4   38150.7    262.1      0.56164  -0.06211   0.18175  -0.09989
   5   40172.2    248.9     -0.65526   0.04893  -0.19512   0.08403
   6   43178.9    231.6     -2.29588  -0.06517   0.41443  -0.21617
   7   44117.0    226.7      1.07143   0.09327  -0.03098   0.00796
   8   51230.8    195.2     -6.71829  -0.02980   0.08860  -0.12424
   9   50455.6    198.2     -3.04179   0.04474  -0.15528   0.07735
  10   50724.5    197.1    -19.73436  -0.06944   0.29113  -0.08827

-------------------------------------------------------------------
         CD SPECTRUM VIA TRANSITION VELOCITY DIPOLE MOMENTS        
-------------------------------------------------------------------
State  Energy     Wavelength     R         MX        MY        MZ   
       (cm-1)       (nm)     (1e40*cgs)   (au)      (au)      (au)  
-------------------------------------------------------------------
   1   29290.0    341.4     -6.40734  -0.02595   0.14692  -0.10583
   2   39437.3    253.6      3.98591   0.08097   0.01909   0.03755
   3   38482.8    259.9     -7.69399  -0.01230  -0.04503   0.05933
   4   38150.7    262.1     -6.28769  -0.06211   0.18175  -0.09989
   5   40172.2    248.9      0.14298   0.04893  -0.19512   0.08403
   6   43178.9    231.6      1.95586  -0.06517   0.41443  -0.21617
   7   44117.0    226.7      2.03629   0.09327  -0.03098   0.00796
   8   51230.8    195.2      0.67981  -0.02980   0.08860  -0.12424
   9   50455.6    198.2     -0.78580   0.04474  -0.15528   0.07735
  10   50724.5    197.1      3.66216  -0.06944   0.29113  -0.08827

Total run time:     7086.523 sec

           *** ORCA-CIS/TD-DFT FINISHED WITHOUT ERROR ***

Maximum memory used throughout the entire CIS-calculation: 1996.4 MB

-----------------------
CIS/TD-DFT TOTAL ENERGY
-----------------------

    E(SCF)  =  -1027.023000078 Eh
    DE(CIS) =      0.133455167 Eh (Root  1)
    ----------------------------- ---------
    E(tot)  =  -1026.889544911 Eh

  Warning: (DFTVDWD): Non-parameterized functional used for dispersion correction ! 

  Warning: (D3BJ): Non-parameterized functional used for dispersion correction !

Please define all necessary parameters (s6, s8, a1, and a2) in the %method block!
[file orca_tools/Tool-Misc/qcdftvdw.cpp, line 36127]: ERROR in DFT dispersion correction!

