
                                 *****************
                                 * O   R   C   A *
                                 *****************

                                            #,                                       
                                            ###                                      
                                            ####                                     
                                            #####                                    
                                            ######                                   
                                           ########,                                 
                                     ,,################,,,,,                         
                               ,,#################################,,                 
                          ,,##########################################,,             
                       ,#########################################, ''#####,          
                    ,#############################################,,   '####,        
                  ,##################################################,,,,####,       
                ,###########''''           ''''###############################       
              ,#####''   ,,,,##########,,,,          '''####'''          '####       
            ,##' ,,,,###########################,,,                        '##       
           ' ,,###''''                  '''############,,,                           
         ,,##''                                '''############,,,,        ,,,,,,###''
      ,#''                                            '''#######################'''  
     '                                                          ''''####''''         
             ,#######,   #######,   ,#######,      ##                                
            ,#'     '#,  ##    ##  ,#'     '#,    #''#        ######   ,####,        
            ##       ##  ##   ,#'  ##            #'  '#       #        #'  '#        
            ##       ##  #######   ##           ,######,      #####,   #    #        
            '#,     ,#'  ##    ##  '#,     ,#' ,#      #,         ##   #,  ,#        
             '#######'   ##     ##  '#######'  #'      '#     #####' # '####'        



                  #######################################################
                  #                        -***-                        #
                  #          Department of theory and spectroscopy      #
                  #    Directorship and core code : Frank Neese         #
                  #        Max Planck Institute fuer Kohlenforschung    #
                  #                Kaiser Wilhelm Platz 1               #
                  #                 D-45470 Muelheim/Ruhr               #
                  #                      Germany                        #
                  #                                                     #
                  #                  All rights reserved                #
                  #                        -***-                        #
                  #######################################################


                         Program Version 5.0.2 -  RELEASE  -


 With contributions from (in alphabetic order):
   Daniel Aravena         : Magnetic Suceptibility
   Michael Atanasov       : Ab Initio Ligand Field Theory (pilot matlab implementation)
   Alexander A. Auer      : GIAO ZORA, VPT2 properties, NMR spectrum
   Ute Becker             : Parallelization
   Giovanni Bistoni       : ED, misc. LED, open-shell LED, HFLD
   Martin Brehm           : Molecular dynamics
   Dmytro Bykov           : SCF Hessian
   Vijay G. Chilkuri      : MRCI spin determinant printing, contributions to CSF-ICE
   Dipayan Datta          : RHF DLPNO-CCSD density
   Achintya Kumar Dutta   : EOM-CC, STEOM-CC
   Dmitry Ganyushin       : Spin-Orbit,Spin-Spin,Magnetic field MRCI
   Miquel Garcia          : C-PCM and meta-GGA Hessian, CC/C-PCM, Gaussian charge scheme
   Yang Guo               : DLPNO-NEVPT2, F12-NEVPT2, CIM, IAO-localization
   Andreas Hansen         : Spin unrestricted coupled pair/coupled cluster methods
   Benjamin Helmich-Paris : MC-RPA, TRAH-SCF, COSX integrals
   Lee Huntington         : MR-EOM, pCC
   Robert Izsak           : Overlap fitted RIJCOSX, COSX-SCS-MP3, EOM
   Marcus Kettner         : VPT2
   Christian Kollmar      : KDIIS, OOCD, Brueckner-CCSD(T), CCSD density, CASPT2, CASPT2-K
   Simone Kossmann        : Meta GGA functionals, TD-DFT gradient, OOMP2, MP2 Hessian
   Martin Krupicka        : Initial AUTO-CI
   Lucas Lang             : DCDCAS
   Marvin Lechner         : AUTO-CI (C++ implementation), FIC-MRCC
   Dagmar Lenk            : GEPOL surface, SMD
   Dimitrios Liakos       : Extrapolation schemes; Compound Job, initial MDCI parallelization
   Dimitrios Manganas     : Further ROCIS development; embedding schemes
   Dimitrios Pantazis     : SARC Basis sets
   Anastasios Papadopoulos: AUTO-CI, single reference methods and gradients
   Taras Petrenko         : DFT Hessian,TD-DFT gradient, ASA, ECA, R-Raman, ABS, FL, XAS/XES, NRVS
   Peter Pinski           : DLPNO-MP2, DLPNO-MP2 Gradient
   Christoph Reimann      : Effective Core Potentials
   Marius Retegan         : Local ZFS, SOC
   Christoph Riplinger    : Optimizer, TS searches, QM/MM, DLPNO-CCSD(T), (RO)-DLPNO pert. Triples
   Tobias Risthaus        : Range-separated hybrids, TD-DFT gradient, RPA, STAB
   Michael Roemelt        : Original ROCIS implementation
   Masaaki Saitow         : Open-shell DLPNO-CCSD energy and density
   Barbara Sandhoefer     : DKH picture change effects
   Avijit Sen             : IP-ROCIS
   Kantharuban Sivalingam : CASSCF convergence, NEVPT2, FIC-MRCI
   Bernardo de Souza      : ESD, SOC TD-DFT
   Georgi Stoychev        : AutoAux, RI-MP2 NMR, DLPNO-MP2 response
   Willem Van den Heuvel  : Paramagnetic NMR
   Boris Wezisla          : Elementary symmetry handling
   Frank Wennmohs         : Technical directorship


 We gratefully acknowledge several colleagues who have allowed us to
 interface, adapt or use parts of their codes:
   Stefan Grimme, W. Hujo, H. Kruse, P. Pracht,  : VdW corrections, initial TS optimization,
                  C. Bannwarth, S. Ehlert          DFT functionals, gCP, sTDA/sTD-DF
   Ed Valeev, F. Pavosevic, A. Kumar             : LibInt (2-el integral package), F12 methods
   Garnet Chan, S. Sharma, J. Yang, R. Olivares  : DMRG
   Ulf Ekstrom                                   : XCFun DFT Library
   Mihaly Kallay                                 : mrcc  (arbitrary order and MRCC methods)
   Jiri Pittner, Ondrej Demel                    : Mk-CCSD
   Frank Weinhold                                : gennbo (NPA and NBO analysis)
   Christopher J. Cramer and Donald G. Truhlar   : smd solvation model
   Lars Goerigk                                  : TD-DFT with DH, B97 family of functionals
   V. Asgeirsson, H. Jonsson                     : NEB implementation
   FAccTs GmbH                                   : IRC, NEB, NEB-TS, DLPNO-Multilevel, CI-OPT
                                                   MM, QMMM, 2- and 3-layer-ONIOM, Crystal-QMMM,
                                                   LR-CPCM, SF, NACMEs, symmetry and pop. for TD-DFT,
                                                   nearIR, NL-DFT gradient (VV10), updates on ESD,
                                                   ML-optimized integration grids
   S Lehtola, MJT Oliveira, MAL Marques          : LibXC Library
   Liviu Ungur et al                             : ANISO software


 Your calculation uses the libint2 library for the computation of 2-el integrals
 For citations please refer to: http://libint.valeyev.net

 Your ORCA version has been built with support for libXC version: 5.1.0
 For citations please refer to: https://tddft.org/programs/libxc/

 This ORCA versions uses:
   CBLAS   interface :  Fast vector & matrix operations
   LAPACKE interface :  Fast linear algebra routines
   SCALAPACK package :  Parallel linear algebra routines
   Shared memory     :  Shared parallel matrices
   BLAS/LAPACK       :  OpenBLAS 0.3.15  USE64BITINT DYNAMIC_ARCH NO_AFFINITY SkylakeX SINGLE_THREADED
        Core in use  :  SkylakeX
   Copyright (c) 2011-2014, The OpenBLAS Project


Your calculation utilizes the SMD solvation module
Please cite in your paper:
A.V. Marenich, C.J. Cramer, D.G. Truhlar J. Phys. Chem. B, 113, (2009), 6378 

================================================================================

----- Orbital basis set information -----
Your calculation utilizes the basis: aug-cc-pVTZ 
    H, B-Ne : Obtained from the ccRepo (grant-hill.group.shef.ac.uk/ccrepo) Feb. 2017
              R. A. Kendall, T. H. Dunning, Jr., R. J. Harrison, J. Chem. Phys. 96, 6796 (1992)
         He : Obtained from the ccRepo (grant-hill.group.shef.ac.uk/ccrepo) Feb. 2017
              D. E. Woon, T. H. Dunning, Jr., J. Chem. Phys. 100, 2975 (1994)
  Li-Be, Na : Obtained from the ccRepo (grant-hill.group.shef.ac.uk/ccrepo) Feb. 2017
              B. P. Prascher, D. E. Woon, K. A. Peterson, T. H. Dunning, Jr., A. K. Wilson, Theor. Chem. Acc. 128, 69 (2011)
         Mg : Obtained from the Peterson Research Group Website (tyr0.chem.wsu.edu/~kipeters) Feb. 2017
              B. P. Prascher, D. E. Woon, K. A. Peterson, T. H. Dunning, Jr., A. K. Wilson, Theor. Chem. Acc. 128, 69 (2011)
      Al-Ar : Obtained from the ccRepo (grant-hill.group.shef.ac.uk/ccrepo) Feb. 2017
              D. E. Woon, T. H. Dunning, Jr., J. Chem. Phys. 98, 1358 (1993)
      Sc-Zn : Obtained from the ccRepo (grant-hill.group.shef.ac.uk/ccrepo) Feb. 2017
              N. B. Balabanov, K. A. Peterson, J. Chem. Phys. 123, 064107 (2005)
              N. B. Balabanov, K. A. Peterson, J. Chem. Phys. 125, 074110 (2006)
      Ga-Kr : Obtained from the ccRepo (grant-hill.group.shef.ac.uk/ccrepo) Feb. 2017
              A. K. Wilson, D. E. Woon, K. A. Peterson, T. H. Dunning, Jr., J. Chem. Phys. 110, 7667 (1999)
     Ag, Au : Obtained from the Peterson Research Group Website (tyr0.chem.wsu.edu/~kipeters) Feb. 2017
              K. A. Peterson, C. Puzzarini, Theor. Chem. Acc. 114, 283 (2005)

The basis set includes element-specific modifications.

Your calculation utilizes the basis: cc-pVTZ 
       H, B-Ne : Obtained from the ccRepo (grant-hill.group.shef.ac.uk/ccrepo) Feb. 2017
                 T. H. Dunning, Jr., J. Chem. Phys. 90, 1007 (1989)
            He : Obtained from the ccRepo (grant-hill.group.shef.ac.uk/ccrepo) Feb. 2017
                 D. E. Woon, T. H. Dunning, Jr., J. Chem. Phys. 100, 2975 (1994)
  Li-Be, Na-Mg : Obtained from the ccRepo (grant-hill.group.shef.ac.uk/ccrepo) Feb. 2017
                 B. P. Prascher, D. E. Woon, K. A. Peterson, T. H. Dunning, Jr., A. K. Wilson, Theor. Chem. Acc. 128, 69 (2011)
         Al-Ar : Obtained from the ccRepo (grant-hill.group.shef.ac.uk/ccrepo) Feb. 2017
                 D. E. Woon, T. H. Dunning, Jr., J. Chem. Phys. 98, 1358 (1993)
            Ca : Obtained from the Peterson Research Group Website (tyr0.chem.wsu.edu/~kipeters) Feb. 2017
                 J. Koput, K. A. Peterson, J. Phys. Chem. 106, 9595 (2002)
         Sc-Zn : Obtained from the ccRepo (grant-hill.group.shef.ac.uk/ccrepo) Feb. 2017
                 N. B. Balabanov, K. A. Peterson, J. Chem. Phys. 123, 064107 (2005)
                 N. B. Balabanov, K. A. Peterson, J. Chem. Phys. 125, 074110 (2006)
         Ga-Kr : Obtained from the ccRepo (grant-hill.group.shef.ac.uk/ccrepo) Feb. 2017
                 A. K. Wilson, D. E. Woon, K. A. Peterson, T. H. Dunning, Jr., J. Chem. Phys. 110, 7667 (1999)
             Y : Obtained from the ccRepo (grant-hill.group.shef.ac.uk/ccrepo) Feb. 2017
                 K. A. Peterson, D. Figgen, M. Dolg, H. Stoll, J. Chem. Phys. 126, 124101 (2007)
        Ag, Au : Obtained from the Peterson Research Group Website (tyr0.chem.wsu.edu/~kipeters) Feb. 2017
                 K. A. Peterson, C. Puzzarini, Theor. Chem. Acc. 114, 283 (2005)

----- AuxJ basis set information -----
Your calculation utilizes the auxiliary basis: aug-cc-pVTZ/JK 
  H, B-F, Al-Cl, Ga-Br : Obtained from the TURBOMOLE 7.0 basis set library

The basis set includes element-specific modifications.

Your calculation utilizes the auxiliary basis: cc-pVTZ/JK 
  H, B-F, Al-Cl, Ga-Br : Obtained from the TURBOMOLE 7.0 basis set library

----- AuxC basis set information -----
Your calculation utilizes the auxiliary basis: aug-cc-pVTZ/C 
  H-He, B-F, Al-Ar, Ga-Kr : Obtained from the EMSL Basis Set Exchange (bse.pnl.gov) Feb. 2017
                            F. Weigend, A. Kohn, C. Hattig, J. Chem. Phys. 116, 3175 (2002)
                   Be, Mg : Obtained from the TURBOMOLE 7.0 basis set library
                            C. Haettig, Phys. Chem. Chem. Phys. 7, 59 (2005)
                       Ne : Obtained from the EMSL Basis Set Exchange (bse.pnl.gov) Feb. 2017
                            C. Haettig, Phys. Chem. Chem. Phys. 7, 59 (2005)
                            F. Weigend, A. Kohn, C. Hattig, J. Chem. Phys. 116, 3175 (2002)
                    Sc-Zn : Obtained from the EMSL Basis Set Exchange (bse.pnl.gov) Feb. 2017
                            J. G. Hill, J. A. Platts, J. Chem. Phys. 128, 044104 (2008)

The basis set includes element-specific modifications.

Your calculation utilizes the auxiliary basis: cc-pVTZ/C 
  Obtained from the EMSL Basis Set Exchange (bse.pnl.gov) Feb. 2017
  H-He, B-F, Al-Ar, Ga-Kr : F. Weigend, A. Kohn, C. Hattig, J. Chem. Phys. 116, 3175 (2002)
             Li-Be, Na-Mg : C. Haettig, Phys. Chem. Chem. Phys. 7, 59 (2005)
                       Ne : C. Haettig, Phys. Chem. Chem. Phys. 7, 59 (2005)
                            F. Weigend, A. Kohn, C. Hattig, J. Chem. Phys. 116, 3175 (2002)
                    Sc-Zn : J. G. Hill, J. A. Platts, J. Chem. Phys. 128, 044104 (2008)

================================================================================
                                        WARNINGS
                       Please study these warnings very carefully!
================================================================================


WARNING: Geometry Optimization
  ===> : Switching off AutoStart
         For restart on a previous wavefunction, please use MOREAD

INFO   : the flag for use of the SHARK integral package has been found!



***************************************
The coordinates will be read from file: 
***************************************


Your calculation utilizes the SMD solvation module
Please cite in your paper:
A.V. Marenich, C.J. Cramer, D.G. Truhlar J. Phys. Chem. B, 113, (2009), 6378 

================================================================================

----- Orbital basis set information -----
Your calculation utilizes the basis: aug-cc-pVTZ 
    H, B-Ne : Obtained from the ccRepo (grant-hill.group.shef.ac.uk/ccrepo) Feb. 2017
              R. A. Kendall, T. H. Dunning, Jr., R. J. Harrison, J. Chem. Phys. 96, 6796 (1992)
         He : Obtained from the ccRepo (grant-hill.group.shef.ac.uk/ccrepo) Feb. 2017
              D. E. Woon, T. H. Dunning, Jr., J. Chem. Phys. 100, 2975 (1994)
  Li-Be, Na : Obtained from the ccRepo (grant-hill.group.shef.ac.uk/ccrepo) Feb. 2017
              B. P. Prascher, D. E. Woon, K. A. Peterson, T. H. Dunning, Jr., A. K. Wilson, Theor. Chem. Acc. 128, 69 (2011)
         Mg : Obtained from the Peterson Research Group Website (tyr0.chem.wsu.edu/~kipeters) Feb. 2017
              B. P. Prascher, D. E. Woon, K. A. Peterson, T. H. Dunning, Jr., A. K. Wilson, Theor. Chem. Acc. 128, 69 (2011)
      Al-Ar : Obtained from the ccRepo (grant-hill.group.shef.ac.uk/ccrepo) Feb. 2017
              D. E. Woon, T. H. Dunning, Jr., J. Chem. Phys. 98, 1358 (1993)
      Sc-Zn : Obtained from the ccRepo (grant-hill.group.shef.ac.uk/ccrepo) Feb. 2017
              N. B. Balabanov, K. A. Peterson, J. Chem. Phys. 123, 064107 (2005)
              N. B. Balabanov, K. A. Peterson, J. Chem. Phys. 125, 074110 (2006)
      Ga-Kr : Obtained from the ccRepo (grant-hill.group.shef.ac.uk/ccrepo) Feb. 2017
              A. K. Wilson, D. E. Woon, K. A. Peterson, T. H. Dunning, Jr., J. Chem. Phys. 110, 7667 (1999)
     Ag, Au : Obtained from the Peterson Research Group Website (tyr0.chem.wsu.edu/~kipeters) Feb. 2017
              K. A. Peterson, C. Puzzarini, Theor. Chem. Acc. 114, 283 (2005)

The basis set includes element-specific modifications.

Your calculation utilizes the basis: cc-pVTZ 
       H, B-Ne : Obtained from the ccRepo (grant-hill.group.shef.ac.uk/ccrepo) Feb. 2017
                 T. H. Dunning, Jr., J. Chem. Phys. 90, 1007 (1989)
            He : Obtained from the ccRepo (grant-hill.group.shef.ac.uk/ccrepo) Feb. 2017
                 D. E. Woon, T. H. Dunning, Jr., J. Chem. Phys. 100, 2975 (1994)
  Li-Be, Na-Mg : Obtained from the ccRepo (grant-hill.group.shef.ac.uk/ccrepo) Feb. 2017
                 B. P. Prascher, D. E. Woon, K. A. Peterson, T. H. Dunning, Jr., A. K. Wilson, Theor. Chem. Acc. 128, 69 (2011)
         Al-Ar : Obtained from the ccRepo (grant-hill.group.shef.ac.uk/ccrepo) Feb. 2017
                 D. E. Woon, T. H. Dunning, Jr., J. Chem. Phys. 98, 1358 (1993)
            Ca : Obtained from the Peterson Research Group Website (tyr0.chem.wsu.edu/~kipeters) Feb. 2017
                 J. Koput, K. A. Peterson, J. Phys. Chem. 106, 9595 (2002)
         Sc-Zn : Obtained from the ccRepo (grant-hill.group.shef.ac.uk/ccrepo) Feb. 2017
                 N. B. Balabanov, K. A. Peterson, J. Chem. Phys. 123, 064107 (2005)
                 N. B. Balabanov, K. A. Peterson, J. Chem. Phys. 125, 074110 (2006)
         Ga-Kr : Obtained from the ccRepo (grant-hill.group.shef.ac.uk/ccrepo) Feb. 2017
                 A. K. Wilson, D. E. Woon, K. A. Peterson, T. H. Dunning, Jr., J. Chem. Phys. 110, 7667 (1999)
             Y : Obtained from the ccRepo (grant-hill.group.shef.ac.uk/ccrepo) Feb. 2017
                 K. A. Peterson, D. Figgen, M. Dolg, H. Stoll, J. Chem. Phys. 126, 124101 (2007)
        Ag, Au : Obtained from the Peterson Research Group Website (tyr0.chem.wsu.edu/~kipeters) Feb. 2017
                 K. A. Peterson, C. Puzzarini, Theor. Chem. Acc. 114, 283 (2005)

----- AuxJ basis set information -----
Your calculation utilizes the auxiliary basis: aug-cc-pVTZ/JK 
  H, B-F, Al-Cl, Ga-Br : Obtained from the TURBOMOLE 7.0 basis set library

The basis set includes element-specific modifications.

Your calculation utilizes the auxiliary basis: cc-pVTZ/JK 
  H, B-F, Al-Cl, Ga-Br : Obtained from the TURBOMOLE 7.0 basis set library

----- AuxC basis set information -----
Your calculation utilizes the auxiliary basis: aug-cc-pVTZ/C 
  H-He, B-F, Al-Ar, Ga-Kr : Obtained from the EMSL Basis Set Exchange (bse.pnl.gov) Feb. 2017
                            F. Weigend, A. Kohn, C. Hattig, J. Chem. Phys. 116, 3175 (2002)
                   Be, Mg : Obtained from the TURBOMOLE 7.0 basis set library
                            C. Haettig, Phys. Chem. Chem. Phys. 7, 59 (2005)
                       Ne : Obtained from the EMSL Basis Set Exchange (bse.pnl.gov) Feb. 2017
                            C. Haettig, Phys. Chem. Chem. Phys. 7, 59 (2005)
                            F. Weigend, A. Kohn, C. Hattig, J. Chem. Phys. 116, 3175 (2002)
                    Sc-Zn : Obtained from the EMSL Basis Set Exchange (bse.pnl.gov) Feb. 2017
                            J. G. Hill, J. A. Platts, J. Chem. Phys. 128, 044104 (2008)

The basis set includes element-specific modifications.

Your calculation utilizes the auxiliary basis: cc-pVTZ/C 
  Obtained from the EMSL Basis Set Exchange (bse.pnl.gov) Feb. 2017
  H-He, B-F, Al-Ar, Ga-Kr : F. Weigend, A. Kohn, C. Hattig, J. Chem. Phys. 116, 3175 (2002)
             Li-Be, Na-Mg : C. Haettig, Phys. Chem. Chem. Phys. 7, 59 (2005)
                       Ne : C. Haettig, Phys. Chem. Chem. Phys. 7, 59 (2005)
                            F. Weigend, A. Kohn, C. Hattig, J. Chem. Phys. 116, 3175 (2002)
                    Sc-Zn : J. G. Hill, J. A. Platts, J. Chem. Phys. 128, 044104 (2008)

================================================================================
                                        WARNINGS
                       Please study these warnings very carefully!
================================================================================

INFO   : Checking CIS options ...

INFO   : the flag for use of the SHARK integral package has been found!

================================================================================
                                       INPUT FILE
================================================================================
NAME = x3lyp-train-2.inp
|  1> ! x3lyp aug-cc-PVTZ RIJCOSX Opt
|  2> %maxcore 4000
|  3> %basis
|  4>  AuxJ "aug-cc-PVTZ/JK"
|  5>  AuxC "aug-cc-PVTZ/C"
|  6>  newGTO H "cc-PVTZ" end
|  7>  newAuxJGTO H "cc-PVTZ/JK" end
|  8>  newAuxCGTO H "cc-PVTZ/C" end
|  9> end
| 10> %cpcm
| 11>  SMD true
| 12>  SMDsolvent "dichloromethane"
| 13> end
| 14> %pal nprocs 4 end
| 15> * xyz 0 1
| 16> F          0.72380        3.39900        2.61910
| 17> B          0.91350        2.05130        2.60710
| 18> F          1.14070        1.54790        3.85390
| 19> O         -0.32270        1.40010        2.05040
| 20> C         -0.27780        0.65900        1.00080
| 21> C         -1.49040        0.07470        0.56860
| 22> C         -2.54740       -0.40390        0.22560
| 23> C         -3.76600       -0.97090       -0.19280
| 24> C         -3.84740       -1.64970       -1.41190
| 25> C         -5.04980       -2.19760       -1.81280
| 26> C         -6.17350       -2.07890       -1.00860
| 27> C         -6.09630       -1.40760        0.20250
| 28> C         -4.90110       -0.85190        0.61430
| 29> C          0.89140        0.40810        0.27860
| 30> C          2.07760        0.99670        0.71400
| 31> C          3.35730        0.77730        0.02690
| 32> C          4.54130        1.00820        0.73150
| 33> C          5.76580        0.80880        0.12520
| 34> C          5.82630        0.38700       -1.19380
| 35> C          4.65640        0.16970       -1.90530
| 36> C          3.42730        0.36000       -1.30310
| 37> O          2.11970        1.75080        1.75630
| 38> H         -2.96700       -1.73660       -2.03120
| 39> H         -5.11380       -2.72020       -2.75560
| 40> H         -7.11080       -2.51020       -1.32670
| 41> H         -6.97290       -1.31740        0.82620
| 42> H         -4.82870       -0.32640        1.55440
| 43> H          0.85920       -0.24490       -0.57350
| 44> H          4.47670        1.33690        1.75720
| 45> H          6.67530        0.98420        0.67950
| 46> H          6.78320        0.23290       -1.66970
| 47> H          4.70400       -0.14690       -2.93650
| 48> H          2.52610        0.21060       -1.87670
| 49> *
| 50> 
| 51> 
| 52> $new_job
| 53> ! x3lyp aug-cc-PVTZ RIJCOSX SP
| 54> %maxcore 4000
| 55> %basis
| 56>  AuxJ "aug-cc-PVTZ/JK"
| 57>  AuxC "aug-cc-PVTZ/C"
| 58>  newGTO H "cc-PVTZ" end
| 59>  newAuxJGTO H "cc-PVTZ/JK" end
| 60>  newAuxCGTO H "cc-PVTZ/C" end
| 61> end
| 62> %cpcm
| 63>  SMD true
| 64>  SMDsolvent "dichloromethane"
| 65> end
| 66> %pal nprocs 4 end
| 67> %tddft
| 68>  nroots 10
| 69>  maxdim 7
| 70> end
| 71> * xyzfile 0 1
| 72> 
| 73>                          ****END OF INPUT****
================================================================================


                 $$$$$$$$$$$$$$$$$$$$$$$$$$$$$$$$$$$$$$$$$$$$$$ 
                 $ THERE ARE  2 JOBS TO BE PROCESSED THIS RUN $
                 $$$$$$$$$$$$$$$$$$$$$$$$$$$$$$$$$$$$$$$$$$$$$$ 




                 $$$$$$$$$$$$$$$$  JOB NUMBER  1 $$$$$$$$$$$$$$


                       *****************************
                       * Geometry Optimization Run *
                       *****************************

Geometry optimization settings:
Update method            Update   .... BFGS
Choice of coordinates    CoordSys .... Z-matrix Internals
Initial Hessian          InHess   .... Almoef's Model

Convergence Tolerances:
Energy Change            TolE     ....  5.0000e-06 Eh
Max. Gradient            TolMAXG  ....  3.0000e-04 Eh/bohr
RMS Gradient             TolRMSG  ....  1.0000e-04 Eh/bohr
Max. Displacement        TolMAXD  ....  4.0000e-03 bohr
RMS Displacement         TolRMSD  ....  2.0000e-03 bohr
Strict Convergence                ....  False
------------------------------------------------------------------------------
                        ORCA OPTIMIZATION COORDINATE SETUP
------------------------------------------------------------------------------

The optimization will be done in new redundant internal coordinates
Making redundant internal coordinates   ...  (new redundants) done
Evaluating the initial hessian          ...  (Almloef) done
Evaluating the coordinates              ...  done
Calculating the B-matrix                .... done
Calculating the G-matrix                .... done
Diagonalizing the G-matrix              .... done
Small eigenvalue found = 1.473e-03
Small eigenvalue found = 1.094e-02
Small eigenvalue found = 1.619e-02
Small eigenvalue found = 2.710e-02
The first mode is                       ....   73
The number of degrees of freedom        ....   93

    -----------------------------------------------------------------
                    Redundant Internal Coordinates


    -----------------------------------------------------------------
         Definition                    Initial Value    Approx d2E/dq
    -----------------------------------------------------------------
      1. B(B   1,F   0)                  1.3610         0.669870   
      2. B(F   2,B   1)                  1.3637         0.663474   
      3. B(O   3,B   1)                  1.5041         0.426318   
      4. B(C   4,O   3)                  1.2857         0.821019   
      5. B(C   5,C   4)                  1.4137         0.572659   
      6. B(C   6,C   5)                  1.2099         1.210632   
      7. B(C   7,C   6)                  1.4077         0.585528   
      8. B(C   8,C   7)                  1.3977         0.607343   
      9. B(C   9,C   8)                  1.3808         0.646212   
     10. B(C  10,C   9)                  1.3869         0.631921   
     11. B(C  11,C  10)                  1.3869         0.632057   
     12. B(C  12,C  11)                  1.3809         0.646036   
     13. B(C  12,C   7)                  1.3979         0.607005   
     14. B(C  13,C   4)                  1.3970         0.608980   
     15. B(C  14,C  13)                  1.3939         0.615798   
     16. B(C  15,C  14)                  1.4690         0.467462   
     17. B(C  16,C  15)                  1.3970         0.608916   
     18. B(C  17,C  16)                  1.3809         0.646143   
     19. B(C  18,C  17)                  1.3861         0.633759   
     20. B(C  19,C  18)                  1.3864         0.633104   
     21. B(C  20,C  19)                  1.3819         0.643755   
     22. B(C  20,C  15)                  1.3957         0.611881   
     23. B(O  21,C  14)                  1.2872         0.816433   
     24. B(O  21,B   1)                  1.5063         0.422736   
     25. B(H  22,C   8)                  1.0799         0.373709   
     26. B(H  23,C   9)                  1.0799         0.373779   
     27. B(H  24,C  10)                  1.0797         0.373995   
     28. B(H  25,C  11)                  1.0796         0.374106   
     29. B(H  26,C  12)                  1.0794         0.374351   
     30. B(H  27,C  13)                  1.0740         0.381871   
     31. B(H  28,C  16)                  1.0790         0.374926   
     32. B(H  29,C  17)                  1.0794         0.374336   
     33. B(H  30,C  18)                  1.0798         0.373902   
     34. B(H  31,C  19)                  1.0798         0.373909   
     35. B(H  32,C  20)                  1.0787         0.375424   
     36. A(F   2,B   1,O  21)          108.0204         0.410300   
     37. A(F   0,B   1,F   2)          112.3770         0.443643   
     38. A(F   0,B   1,O   3)          108.5074         0.411614   
     39. A(O   3,B   1,O  21)          111.2671         0.381283   
     40. A(F   2,B   1,O   3)          108.3926         0.410914   
     41. A(F   0,B   1,O  21)          108.3078         0.410999   
     42. A(B   1,O   3,C   4)          121.5369         0.424957   
     43. A(O   3,C   4,C   5)          117.2502         0.447188   
     44. A(O   3,C   4,C  13)          123.6978         0.452208   
     45. A(C   5,C   4,C  13)          119.0520         0.426545   
     46. L(C   4,C   5,C   6,O   3, 1) 178.1495         0.483342   
     47. L(C   4,C   5,C   6,O   3, 2) 179.5246         0.483342   
     48. L(C   5,C   6,C   7,C   8, 1) 179.0062         0.485330   
     49. L(C   5,C   6,C   7,C   8, 2) 179.8023         0.485330   
     50. A(C   8,C   7,C  12)          119.8447         0.430816   
     51. A(C   6,C   7,C  12)          119.8053         0.427998   
     52. A(C   6,C   7,C   8)          120.3499         0.428041   
     53. A(C   7,C   8,C   9)          119.7784         0.435693   
     54. A(C   9,C   8,H  22)          120.7627         0.357640   
     55. A(C   7,C   8,H  22)          119.4586         0.353895   
     56. A(C   8,C   9,C  10)          120.2128         0.438820   
     57. A(C  10,C   9,H  23)          119.9773         0.356295   
     58. A(C   8,C   9,H  23)          119.8099         0.357651   
     59. A(C   9,C  10,C  11)          120.1782         0.437071   
     60. A(C  11,C  10,H  24)          119.9317         0.356343   
     61. A(C   9,C  10,H  24)          119.8901         0.356330   
     62. A(C  12,C  11,H  25)          119.7929         0.357688   
     63. A(C  10,C  11,H  25)          119.9826         0.356361   
     64. A(C  10,C  11,C  12)          120.2244         0.438815   
     65. A(C   7,C  12,H  26)          119.3295         0.353964   
     66. A(C  11,C  12,H  26)          120.9092         0.357728   
     67. A(C   7,C  12,C  11)          119.7612         0.435628   
     68. A(C  14,C  13,H  27)          122.0089         0.356027   
     69. A(C   4,C  13,H  27)          119.6208         0.355355   
     70. A(C   4,C  13,C  14)          118.3528         0.432140   
     71. A(C  13,C  14,C  15)          122.1512         0.412202   
     72. A(C  15,C  14,O  21)          115.9614         0.430671   
     73. A(C  13,C  14,O  21)          121.8798         0.452663   
     74. A(C  16,C  15,C  20)          119.1788         0.431636   
     75. A(C  14,C  15,C  20)          122.2814         0.411736   
     76. A(C  14,C  15,C  16)          118.5371         0.411381   
     77. A(C  15,C  16,H  28)          118.6234         0.354245   
     78. A(C  17,C  16,H  28)          120.9614         0.357831   
     79. A(C  15,C  16,C  17)          120.4136         0.435888   
     80. A(C  18,C  17,H  29)          120.0866         0.356561   
     81. A(C  16,C  17,H  29)          119.8827         0.357736   
     82. A(C  16,C  17,C  18)          120.0305         0.439042   
     83. A(C  19,C  18,H  30)          119.9512         0.356428   
     84. A(C  17,C  18,H  30)          120.1001         0.356491   
     85. A(C  17,C  18,C  19)          119.9478         0.437430   
     86. A(C  18,C  19,C  20)          120.3527         0.438666   
     87. A(C  20,C  19,H  31)          119.7213         0.357441   
     88. A(C  18,C  19,H  31)          119.9257         0.356429   
     89. A(C  15,C  20,C  19)          120.0704         0.435978   
     90. A(C  19,C  20,H  32)          119.4924         0.357687   
     91. A(C  15,C  20,H  32)          120.4147         0.354616   
     92. A(B   1,O  21,C  14)          123.2327         0.423891   
     93. D(C   4,O   3,B   1,F   0)    121.0462         0.011865   
     94. D(C   4,O   3,B   1,F   2)   -116.6520         0.011865   
     95. D(C   4,O   3,B   1,O  21)      1.9848         0.011865   
     96. D(C  13,C   4,O   3,B   1)     -1.0221         0.052280   
     97. D(C   5,C   4,O   3,B   1)    179.0147         0.052280   
     98. D(C   8,C   7,C   4,C  13)     -7.8498         0.001500   
     99. D(C   8,C   7,C   4,O   3)    171.9278         0.001500   
    100. D(C  12,C   7,C   4,O   3)     -7.8166         0.001500   
    101. D(C  12,C   7,C   4,C  13)    172.4057         0.001500   
    102. D(H  22,C   8,C   7,C   6)      0.0345         0.025463   
    103. D(C   9,C   8,C   7,C  12)      0.0821         0.025463   
    104. D(H  22,C   8,C   7,C  12)    179.9066         0.025463   
    105. D(C   9,C   8,C   7,C   6)   -179.7900         0.025463   
    106. D(C  10,C   9,C   8,H  22)   -179.9824         0.029052   
    107. D(C  10,C   9,C   8,C   7)     -0.1602         0.029052   
    108. D(H  23,C   9,C   8,H  22)      0.0395         0.029052   
    109. D(H  23,C   9,C   8,C   7)    179.8616         0.029052   
    110. D(H  24,C  10,C   9,H  23)      0.0415         0.027698   
    111. D(H  24,C  10,C   9,C   8)   -179.9366         0.027698   
    112. D(C  11,C  10,C   9,H  23)   -179.9439         0.027698   
    113. D(C  11,C  10,C   9,C   8)      0.0780         0.027698   
    114. D(H  25,C  11,C  10,H  24)      0.0375         0.027711   
    115. D(H  25,C  11,C  10,C   9)   -179.9772         0.027711   
    116. D(C  12,C  11,C  10,H  24)   -179.9008         0.027711   
    117. D(C  12,C  11,C  10,C   9)      0.0846         0.027711   
    118. D(C   7,C  12,C  11,C  10)     -0.1618         0.029035   
    119. D(H  26,C  12,C   7,C   8)    179.9673         0.025433   
    120. D(H  26,C  12,C   7,C   6)     -0.1599         0.025433   
    121. D(C  11,C  12,C   7,C   8)      0.0788         0.025433   
    122. D(C   7,C  12,C  11,H  25)    179.8998         0.029035   
    123. D(C  11,C  12,C   7,C   6)    179.9515         0.025433   
    124. D(H  26,C  12,C  11,H  25)      0.0130         0.029035   
    125. D(H  26,C  12,C  11,C  10)    179.9514         0.029035   
    126. D(H  27,C  13,C   4,C   5)     -1.7908         0.025608   
    127. D(H  27,C  13,C   4,O   3)    178.2466         0.025608   
    128. D(C  14,C  13,C   4,C   5)    179.7009         0.025608   
    129. D(C  14,C  13,C   4,O   3)     -0.2617         0.025608   
    130. D(O  21,C  14,C  13,H  27)   -178.1374         0.026219   
    131. D(O  21,C  14,C  13,C   4)      0.3334         0.026219   
    132. D(C  15,C  14,C  13,H  27)      0.8174         0.026219   
    133. D(C  15,C  14,C  13,C   4)    179.2881         0.026219   
    134. D(C  20,C  15,C  14,O  21)   -159.3682         0.014881   
    135. D(C  20,C  15,C  14,C  13)     21.6190         0.014881   
    136. D(C  16,C  15,C  14,O  21)     20.0272         0.014881   
    137. D(C  16,C  15,C  14,C  13)   -158.9856         0.014881   
    138. D(H  28,C  16,C  15,C  20)    179.5982         0.025602   
    139. D(H  28,C  16,C  15,C  14)      0.1836         0.025602   
    140. D(C  17,C  16,C  15,C  20)     -0.8613         0.025602   
    141. D(C  17,C  16,C  15,C  14)    179.7242         0.025602   
    142. D(H  29,C  17,C  16,H  28)     -0.1066         0.029045   
    143. D(H  29,C  17,C  16,C  15)   -179.6363         0.029045   
    144. D(C  18,C  17,C  16,H  28)   -179.9639         0.029045   
    145. D(C  18,C  17,C  16,C  15)      0.5065         0.029045   
    146. D(H  30,C  18,C  17,H  29)      0.0032         0.027870   
    147. D(H  30,C  18,C  17,C  16)    179.8601         0.027870   
    148. D(C  19,C  18,C  17,H  29)   -179.6439         0.027870   
    149. D(C  19,C  18,C  17,C  16)      0.2130         0.027870   
    150. D(H  31,C  19,C  18,H  30)     -0.4156         0.027809   
    151. D(H  31,C  19,C  18,C  17)    179.2320         0.027809   
    152. D(C  20,C  19,C  18,H  30)    179.7805         0.027809   
    153. D(C  20,C  19,C  18,C  17)     -0.5719         0.027809   
    154. D(C  19,C  20,C  15,C  16)      0.5023         0.025867   
    155. D(C  19,C  20,C  15,C  14)    179.8939         0.025867   
    156. D(H  32,C  20,C  19,H  31)     -1.3144         0.028816   
    157. D(H  32,C  20,C  19,C  18)    178.4900         0.028816   
    158. D(C  15,C  20,C  19,H  31)   -179.5953         0.028816   
    159. D(C  15,C  20,C  19,C  18)      0.2090         0.028816   
    160. D(H  32,C  20,C  15,C  16)   -177.7626         0.025867   
    161. D(H  32,C  20,C  15,C  14)      1.6290         0.025867   
    162. D(B   1,O  21,C  14,C  15)   -178.1208         0.051626   
    163. D(B   1,O  21,C  14,C  13)      0.8949         0.051626   
    164. D(C  14,O  21,B   1,O   3)     -1.9494         0.011676   
    165. D(C  14,O  21,B   1,F   2)    116.9105         0.011676   
    166. D(C  14,O  21,B   1,F   0)   -121.1301         0.011676   
    -----------------------------------------------------------------

Number of atoms                         .... 33
Number of degrees of freedom            .... 166

         *************************************************************
         *                GEOMETRY OPTIMIZATION CYCLE   1            *
         *************************************************************
---------------------------------
CARTESIAN COORDINATES (ANGSTROEM)
---------------------------------
  F      0.723800    3.399000    2.619100
  B      0.913500    2.051300    2.607100
  F      1.140700    1.547900    3.853900
  O     -0.322700    1.400100    2.050400
  C     -0.277800    0.659000    1.000800
  C     -1.490400    0.074700    0.568600
  C     -2.547400   -0.403900    0.225600
  C     -3.766000   -0.970900   -0.192800
  C     -3.847400   -1.649700   -1.411900
  C     -5.049800   -2.197600   -1.812800
  C     -6.173500   -2.078900   -1.008600
  C     -6.096300   -1.407600    0.202500
  C     -4.901100   -0.851900    0.614300
  C      0.891400    0.408100    0.278600
  C      2.077600    0.996700    0.714000
  C      3.357300    0.777300    0.026900
  C      4.541300    1.008200    0.731500
  C      5.765800    0.808800    0.125200
  C      5.826300    0.387000   -1.193800
  C      4.656400    0.169700   -1.905300
  C      3.427300    0.360000   -1.303100
  O      2.119700    1.750800    1.756300
  H     -2.967000   -1.736600   -2.031200
  H     -5.113800   -2.720200   -2.755600
  H     -7.110800   -2.510200   -1.326700
  H     -6.972900   -1.317400    0.826200
  H     -4.828700   -0.326400    1.554400
  H      0.859200   -0.244900   -0.573500
  H      4.476700    1.336900    1.757200
  H      6.675300    0.984200    0.679500
  H      6.783200    0.232900   -1.669700
  H      4.704000   -0.146900   -2.936500
  H      2.526100    0.210600   -1.876700

----------------------------
CARTESIAN COORDINATES (A.U.)
----------------------------
  NO LB      ZA    FRAG     MASS         X           Y           Z
   0 F     9.0000    0    18.998    1.367784    6.423179    4.949382
   1 B     5.0000    0    10.810    1.726265    3.876395    4.926705
   2 F     9.0000    0    18.998    2.155611    2.925107    7.282816
   3 O     8.0000    0    15.999   -0.609815    2.645806    3.874694
   4 C     6.0000    0    12.011   -0.524966    1.245330    1.891238
   5 C     6.0000    0    12.011   -2.816448    0.141163    1.074498
   6 C     6.0000    0    12.011   -4.813888   -0.763260    0.426322
   7 C     6.0000    0    12.011   -7.116709   -1.834735   -0.364339
   8 C     6.0000    0    12.011   -7.270532   -3.117481   -2.668104
   9 C     6.0000    0    12.011   -9.542739   -4.152862   -3.425696
  10 C     6.0000    0    12.011  -11.666224   -3.928552   -1.905978
  11 C     6.0000    0    12.011  -11.520337   -2.659979    0.382670
  12 C     6.0000    0    12.011   -9.261737   -1.609858    1.160859
  13 C     6.0000    0    12.011    1.684502    0.771197    0.526478
  14 C     6.0000    0    12.011    3.926095    1.883490    1.349264
  15 C     6.0000    0    12.011    6.344378    1.468884    0.050834
  16 C     6.0000    0    12.011    8.581813    1.905222    1.382335
  17 C     6.0000    0    12.011   10.895783    1.528410    0.236594
  18 C     6.0000    0    12.011   11.010111    0.731324   -2.255955
  19 C     6.0000    0    12.011    8.799321    0.320687   -3.600495
  20 C     6.0000    0    12.011    6.476658    0.680301   -2.462502
  21 O     8.0000    0    15.999    4.005652    3.308533    3.318926
  22 H     1.0000    0     1.008   -5.606817   -3.281698   -3.838412
  23 H     1.0000    0     1.008   -9.663682   -5.140433   -5.207329
  24 H     1.0000    0     1.008  -13.437465   -4.743591   -2.507100
  25 H     1.0000    0     1.008  -13.176871   -2.489525    1.561292
  26 H     1.0000    0     1.008   -9.124921   -0.616807    2.937390
  27 H     1.0000    0     1.008    1.623653   -0.462794   -1.083758
  28 H     1.0000    0     1.008    8.459737    2.526375    3.320627
  29 H     1.0000    0     1.008   12.614489    1.859868    1.284069
  30 H     1.0000    0     1.008   12.818390    0.440117   -3.155276
  31 H     1.0000    0     1.008    8.889272   -0.277601   -5.549181
  32 H     1.0000    0     1.008    4.773637    0.397976   -3.546449

--------------------------------
INTERNAL COORDINATES (ANGSTROEM)
--------------------------------
 F      0   0   0     0.000000000000     0.00000000     0.00000000
 B      1   0   0     1.361038346264     0.00000000     0.00000000
 F      2   1   0     1.363650116415   112.37700882     0.00000000
 O      2   1   3     1.504050122170   108.50739916   119.84415182
 C      4   2   1     1.285653678095   121.53692283   121.04622605
 C      5   4   2     1.413719240161   117.25020729   179.01470229
 C      6   5   4     1.209940477875   178.13370030     7.66502221
 C      7   6   5     1.407669535083   179.00126350   170.21456246
 C      8   7   6     1.397712491895   120.34987170   354.19872640
 C      9   8   7     1.380826194711   119.77839165   180.21003037
 C     10   9   8     1.386913486848   120.21283228   359.83978019
 C     11  10   9     1.386854981604   120.17820755     0.07800457
 C     12  11  10     1.380899985517   120.22438290     0.08455612
 C      5   4   2     1.396979702787   123.69776803   358.97786779
 C     14   5   4     1.393948908676   118.35277050   359.73834624
 C     15  14   5     1.468970680443   122.15117844   179.28808665
 C     16  15  14     1.397008221164   118.53706876   201.01440542
 C     17  16  15     1.380854916347   120.41360988   179.72415223
 C     18  17  16     1.386122826448   120.03047794     0.50649192
 C     19  18  17     1.386404540529   119.94779471     0.21304194
 C     20  19  18     1.381863140836   120.35272743   359.42805201
 O     15  14   5     1.287178507434   121.87981749     0.33336731
 H      9   8   7     1.079901967773   119.45863538     0.03451984
 H     10   9   8     1.079851193452   119.80989019   179.86163658
 H     11  10   9     1.079693748245   119.89012660   180.06335326
 H     12  11  10     1.079613491024   119.98264211   180.02283970
 H     13  12  11     1.079435046680   120.90921105   179.95140607
 H     14   5   4     1.074020600361   119.62078124   178.24663773
 H     17  16  15     1.079016839535   118.62341274     0.18363142
 H     18  17  16     1.079446107965   119.88274305   180.36371353
 H     19  18  17     1.079761654255   120.10007515   179.86010635
 H     20  19  18     1.079756805952   119.92572976   179.23201110
 H     21  20  19     1.078655997063   119.49239500   178.48995085

---------------------------
INTERNAL COORDINATES (A.U.)
---------------------------
 F      0   0   0     0.000000000000     0.00000000     0.00000000
 B      1   0   0     2.571989732203     0.00000000     0.00000000
 F      2   1   0     2.576925262515   112.37700882     0.00000000
 O      2   1   3     2.842242822592   108.50739916   119.84415182
 C      4   2   1     2.429533354669   121.53692283   121.04622605
 C      5   4   2     2.671542194159   117.25020729   179.01470229
 C      6   5   4     2.286456141529   178.13370030     7.66502221
 C      7   6   5     2.660109908371   179.00126350   170.21456246
 C      8   7   6     2.641293823643   120.34987170   354.19872640
 C      9   8   7     2.609383346548   119.77839165   180.21003037
 C     10   9   8     2.620886661584   120.21283228   359.83978019
 C     11  10   9     2.620776102696   120.17820755     0.07800457
 C     12  11  10     2.609522790962   120.22438290     0.08455612
 C      5   4   2     2.639909052915   123.69776803   358.97786779
 C     14   5   4     2.634181682077   118.35277050   359.73834624
 C     15  14   5     2.775952284796   122.15117844   179.28808665
 C     16  15  14     2.639962944837   118.53706876   201.01440542
 C     17  16  15     2.609437622575   120.41360988   179.72415223
 C     18  17  16     2.619392529963   120.03047794     0.50649192
 C     19  18  17     2.619924892425   119.94779471     0.21304194
 C     20  19  18     2.611342890740   120.35272743   359.42805201
 O     15  14   5     2.432414864520   121.87981749     0.33336731
 H      9   8   7     2.040718970574   119.45863538     0.03451984
 H     10   9   8     2.040623021013   119.80989019   179.86163658
 H     11  10   9     2.040325492691   119.89012660   180.06335326
 H     12  11  10     2.040173828521   119.98264211   180.02283970
 H     13  12  11     2.039836617581   120.90921105   179.95140607
 H     14   5   4     2.029604796872   119.62078124   178.24663773
 H     17  16  15     2.039046320610   118.62341274     0.18363142
 H     18  17  16     2.039857520380   119.88274305   180.36371353
 H     19  18  17     2.040453816452   120.10007515   179.86010635
 H     20  19  18     2.040444654487   119.92572976   179.23201110
 H     21  20  19     2.038364427161   119.49239500   178.48995085

---------------------
BASIS SET INFORMATION
---------------------
There are 5 groups of distinct atoms

 Group   1 Type F   : 19s6p3d2f contracted to 5s4p3d2f pattern {88111/3111/111/11}
 Group   2 Type B   : 19s6p3d2f contracted to 5s4p3d2f pattern {88111/3111/111/11}
 Group   3 Type O   : 19s6p3d2f contracted to 5s4p3d2f pattern {88111/3111/111/11}
 Group   4 Type C   : 19s6p3d2f contracted to 5s4p3d2f pattern {88111/3111/111/11}
 Group   5 Type H   : 5s2p1d contracted to 3s2p1d pattern {311/11/1}

Atom   0F    basis set group =>   1
Atom   1B    basis set group =>   2
Atom   2F    basis set group =>   1
Atom   3O    basis set group =>   3
Atom   4C    basis set group =>   4
Atom   5C    basis set group =>   4
Atom   6C    basis set group =>   4
Atom   7C    basis set group =>   4
Atom   8C    basis set group =>   4
Atom   9C    basis set group =>   4
Atom  10C    basis set group =>   4
Atom  11C    basis set group =>   4
Atom  12C    basis set group =>   4
Atom  13C    basis set group =>   4
Atom  14C    basis set group =>   4
Atom  15C    basis set group =>   4
Atom  16C    basis set group =>   4
Atom  17C    basis set group =>   4
Atom  18C    basis set group =>   4
Atom  19C    basis set group =>   4
Atom  20C    basis set group =>   4
Atom  21O    basis set group =>   3
Atom  22H    basis set group =>   5
Atom  23H    basis set group =>   5
Atom  24H    basis set group =>   5
Atom  25H    basis set group =>   5
Atom  26H    basis set group =>   5
Atom  27H    basis set group =>   5
Atom  28H    basis set group =>   5
Atom  29H    basis set group =>   5
Atom  30H    basis set group =>   5
Atom  31H    basis set group =>   5
Atom  32H    basis set group =>   5
---------------------------------
AUXILIARY/J BASIS SET INFORMATION
---------------------------------
There are 5 groups of distinct atoms

 Group   1 Type F   : 10s7p5d2f1g contracted to 10s7p5d2f1g pattern {1111111111/1111111/11111/11/1}
 Group   2 Type B   : 10s7p5d2f1g contracted to 10s7p5d2f1g pattern {1111111111/1111111/11111/11/1}
 Group   3 Type O   : 10s7p5d2f1g contracted to 10s7p5d2f1g pattern {1111111111/1111111/11111/11/1}
 Group   4 Type C   : 10s7p5d2f1g contracted to 10s7p5d2f1g pattern {1111111111/1111111/11111/11/1}
 Group   5 Type H   : 4s3p2d1f contracted to 4s3p2d1f pattern {1111/111/11/1}

Atom   0F    basis set group =>   1
Atom   1B    basis set group =>   2
Atom   2F    basis set group =>   1
Atom   3O    basis set group =>   3
Atom   4C    basis set group =>   4
Atom   5C    basis set group =>   4
Atom   6C    basis set group =>   4
Atom   7C    basis set group =>   4
Atom   8C    basis set group =>   4
Atom   9C    basis set group =>   4
Atom  10C    basis set group =>   4
Atom  11C    basis set group =>   4
Atom  12C    basis set group =>   4
Atom  13C    basis set group =>   4
Atom  14C    basis set group =>   4
Atom  15C    basis set group =>   4
Atom  16C    basis set group =>   4
Atom  17C    basis set group =>   4
Atom  18C    basis set group =>   4
Atom  19C    basis set group =>   4
Atom  20C    basis set group =>   4
Atom  21O    basis set group =>   3
Atom  22H    basis set group =>   5
Atom  23H    basis set group =>   5
Atom  24H    basis set group =>   5
Atom  25H    basis set group =>   5
Atom  26H    basis set group =>   5
Atom  27H    basis set group =>   5
Atom  28H    basis set group =>   5
Atom  29H    basis set group =>   5
Atom  30H    basis set group =>   5
Atom  31H    basis set group =>   5
Atom  32H    basis set group =>   5
---------------------------------
AUXILIARY/C BASIS SET INFORMATION
---------------------------------
There are 5 groups of distinct atoms

 Group   1 Type F   : 9s7p6d4f2g contracted to 9s7p6d4f2g pattern {111111111/1111111/111111/1111/11}
 Group   2 Type B   : 9s7p6d4f2g contracted to 9s7p6d4f2g pattern {111111111/1111111/111111/1111/11}
 Group   3 Type O   : 9s7p6d4f2g contracted to 9s7p6d4f2g pattern {111111111/1111111/111111/1111/11}
 Group   4 Type C   : 9s7p6d4f2g contracted to 9s7p6d4f2g pattern {111111111/1111111/111111/1111/11}
 Group   5 Type H   : 4s3p2d1f contracted to 4s3p2d1f pattern {1111/111/11/1}

Atom   0F    basis set group =>   1
Atom   1B    basis set group =>   2
Atom   2F    basis set group =>   1
Atom   3O    basis set group =>   3
Atom   4C    basis set group =>   4
Atom   5C    basis set group =>   4
Atom   6C    basis set group =>   4
Atom   7C    basis set group =>   4
Atom   8C    basis set group =>   4
Atom   9C    basis set group =>   4
Atom  10C    basis set group =>   4
Atom  11C    basis set group =>   4
Atom  12C    basis set group =>   4
Atom  13C    basis set group =>   4
Atom  14C    basis set group =>   4
Atom  15C    basis set group =>   4
Atom  16C    basis set group =>   4
Atom  17C    basis set group =>   4
Atom  18C    basis set group =>   4
Atom  19C    basis set group =>   4
Atom  20C    basis set group =>   4
Atom  21O    basis set group =>   3
Atom  22H    basis set group =>   5
Atom  23H    basis set group =>   5
Atom  24H    basis set group =>   5
Atom  25H    basis set group =>   5
Atom  26H    basis set group =>   5
Atom  27H    basis set group =>   5
Atom  28H    basis set group =>   5
Atom  29H    basis set group =>   5
Atom  30H    basis set group =>   5
Atom  31H    basis set group =>   5
Atom  32H    basis set group =>   5


           ************************************************************
           *        Program running with 4 parallel MPI-processes     *
           *              working on a common directory               *
           ************************************************************
------------------------------------------------------------------------------
                           ORCA GTO INTEGRAL CALCULATION
                           -- RI-GTO INTEGRALS CHOSEN --
------------------------------------------------------------------------------
------------------------------------------------------------------------------
                   ___                                                        
                  /   \      - P O W E R E D   B Y -                         
                 /     \                                                     
                 |  |  |   _    _      __       _____    __    __             
                 |  |  |  | |  | |    /  \     |  _  \  |  |  /  |          
                  \  \/   | |  | |   /    \    | | | |  |  | /  /          
                 / \  \   | |__| |  /  /\  \   | |_| |  |  |/  /          
                |  |  |   |  __  | /  /__\  \  |    /   |      \           
                |  |  |   | |  | | |   __   |  |    \   |  |\   \          
                \     /   | |  | | |  |  |  |  | |\  \  |  | \   \       
                 \___/    |_|  |_| |__|  |__|  |_| \__\ |__|  \__/        
                                                                              
                      - O R C A' S   B I G   F R I E N D -                    
                                      &                                       
                       - I N T E G R A L  F E E D E R -                       
                                                                              
 v1 FN, 2020, v2 2021                                                         
------------------------------------------------------------------------------


Reading SHARK input file x3lyp-train-2.SHARKINP.tmp ... ok
----------------------
SHARK INTEGRAL PACKAGE
----------------------

Number of atoms                             ...     33
Number of basis functions                   ...   1298
Number of shells                            ...    506
Maximum angular momentum                    ...      3
Integral batch strategy                     ... SHARK/LIBINT Hybrid
RI-J (if used) integral strategy            ... SPLIT-RIJ (Revised 2003 algorithm where possible)
Printlevel                                  ...      1
Contraction scheme used                     ... PARTIAL GENERAL contraction
Coulomb Range Separation                    ... NOT USED
Exchange Range Separation                   ... NOT USED
Finite Nucleus Model                        ... NOT USED
Auxiliary Coulomb fitting basis             ... AVAILABLE
   # of basis functions in Aux-J            ...   2068
   # of shells in Aux-J                     ...    660
   Maximum angular momentum in Aux-J        ...      4
Auxiliary J/K fitting basis                 ... NOT available
Auxiliary Correlation fitting basis         ... AVAILABLE
   # of basis functions in Aux-C            ...   2662
   # of shells in Aux-C                     ...    726
   Maximum angular momentum in Aux-C        ...      4
Auxiliary 'external' fitting basis          ... NOT available
Integral threshold                          ...     2.500000e-11
Primitive cut-off                           ...     2.500000e-12
Primitive pair pre-selection threshold      ...     2.500000e-12

Calculating pre-screening integrals         ... done (  0.3 sec) Dimension = 506
Calculating pre-screening integrals (ORCA)  ... done (  0.5 sec) Dimension = 374
Organizing shell pair data                  ... done (  2.3 sec)
Shell pair information
Total number of shell pairs                 ...    128271
Shell pairs after pre-screening             ...     73875
Total number of primitive shell pairs       ...    163977
Primitive shell pairs kept                  ...     85539
          la=0 lb=0:  16510 shell pairs
          la=1 lb=0:  19109 shell pairs
          la=1 lb=1:   4628 shell pairs
          la=2 lb=0:  12291 shell pairs
          la=2 lb=1:   6128 shell pairs
          la=2 lb=2:   2100 shell pairs
          la=3 lb=0:   6714 shell pairs
          la=3 lb=1:   3428 shell pairs
          la=3 lb=2:   2307 shell pairs
          la=3 lb=3:    660 shell pairs

Calculating one electron integrals          ... done (  0.2 sec)
Calculating RI/J V-Matrix + Cholesky decomp.... done (  0.3 sec)
Calculating RI/C V-Matrix + Cholesky decomp.... done (  0.5 sec)
Calculating Nuclear repulsion               ... done (  0.0 sec) ENN=   1537.737335514157 Eh

SHARK setup successfully completed in   5.5 seconds

Maximum memory used throughout the entire GTOINT-calculation: 122.5 MB


           ************************************************************
           *        Program running with 4 parallel MPI-processes     *
           *              working on a common directory               *
           ************************************************************
-------------------------------------------------------------------------------
                                 ORCA SCF
-------------------------------------------------------------------------------

------------
SCF SETTINGS
------------
Hamiltonian:
 Density Functional     Method          .... DFT(GTOs)
 Exchange Functional    Exchange        .... X
 Correlation Functional Correlation     .... LYP
 LDA part of GGA corr.  LDAOpt          .... VWN-5
 Gradients option       PostSCFGGA      .... off
 Hybrid DFT is turned on
   Fraction HF Exchange ScalHFX         ....  0.218000
   Scaling of DF-GGA-X  ScalDFX         ....  0.709000
   Scaling of DF-GGA-C  ScalDFC         ....  0.871000
   Scaling of DF-LDA-C  ScalLDAC        ....  1.000000
   Perturbative correction              ....  0.000000
   Density functional embedding theory  .... OFF
 RI-approximation to the Coulomb term is turned on
   Number of AuxJ basis functions       .... 2068
   RIJ-COSX (HFX calculated with COS-X)).... on


General Settings:
 Integral files         IntName         .... x3lyp-train-2
 Hartree-Fock type      HFTyp           .... RHF
 Total Charge           Charge          ....    0
 Multiplicity           Mult            ....    1
 Number of Electrons    NEL             ....  152
 Basis Dimension        Dim             .... 1166
 Nuclear Repulsion      ENuc            ....   1537.7373355142 Eh

Convergence Acceleration:
 DIIS                   CNVDIIS         .... on
   Start iteration      DIISMaxIt       ....    12
   Startup error        DIISStart       ....  0.200000
   # of expansion vecs  DIISMaxEq       ....     5
   Bias factor          DIISBfac        ....   1.050
   Max. coefficient     DIISMaxC        ....  10.000
 Trust-Rad. Augm. Hess. CNVTRAH         .... auto
   Auto Start mean grad. ratio tolernc. ....  1.125000
   Auto Start start iteration           ....    20
   Auto Start num. interpolation iter.  ....    10
   Max. Number of Micro iterations      ....    16
   Max. Number of Macro iterations      .... Maxiter - #DIIS iter
   Number of Davidson start vectors     ....     2
   Converg. threshold I  (grad. norm)   ....   1.000e-05
   Converg. threshold II (energy diff.) ....   1.000e-08
   Grad. Scal. Fac. for Micro threshold ....   0.100
   Minimum threshold for Micro iter.    ....   0.010
   NR start threshold (gradient norm)   ....   0.001
   Initial trust radius                 ....   0.400
   Minimum AH scaling param. (alpha)    ....   1.000
   Maximum AH scaling param. (alpha)    .... 1000.000
   Orbital update algorithm             .... Taylor
   White noise on init. David. guess    .... on
   Maximum white noise                  ....   0.010
   Quad. conv. algorithm                .... NR
 SOSCF                  CNVSOSCF        .... on
   Start iteration      SOSCFMaxIt      ....   150
   Startup grad/error   SOSCFStart      ....  0.003300
 Level Shifting         CNVShift        .... on
   Level shift para.    LevelShift      ....    0.2500
   Turn off err/grad.   ShiftErr        ....    0.0010
 Zerner damping         CNVZerner       .... off
 Static damping         CNVDamp         .... on
   Fraction old density DampFac         ....    0.7000
   Max. Damping (<1)    DampMax         ....    0.9800
   Min. Damping (>=0)   DampMin         ....    0.0000
   Turn off err/grad.   DampErr         ....    0.1000
 Fernandez-Rico         CNVRico         .... off

SCF Procedure:
 Maximum # iterations   MaxIter         ....   125
 SCF integral mode      SCFMode         .... Direct
   Integral package                     .... SHARK and LIBINT hybrid scheme
 Reset frequency        DirectResetFreq ....    20
 Integral Threshold     Thresh          ....  2.500e-11 Eh
 Primitive CutOff       TCut            ....  2.500e-12 Eh

Convergence Tolerance:
 Convergence Check Mode ConvCheckMode   .... Total+1el-Energy
 Convergence forced     ConvForced      .... 0
 Energy Change          TolE            ....  1.000e-08 Eh
 1-El. energy change                    ....  1.000e-05 Eh
 Orbital Gradient       TolG            ....  1.000e-05
 Orbital Rotation angle TolX            ....  1.000e-05
 DIIS Error             TolErr          ....  5.000e-07


Diagonalization of the overlap matrix:
Smallest eigenvalue                        ... 2.158e-07
Time for diagonalization                   ...    0.317 sec
Threshold for overlap eigenvalues          ... 1.000e-08
Number of eigenvalues below threshold      ... 0
Time for construction of square roots      ...    0.233 sec
Total time needed                          ...    0.557 sec

Time for model grid setup =    0.643 sec

------------------------------
INITIAL GUESS: MODEL POTENTIAL
------------------------------
Loading Hartree-Fock densities                     ... done
Calculating cut-offs                               ... done
Initializing the effective Hamiltonian             ... done
Setting up the integral package (SHARK)            ... done
Starting the Coulomb interaction                   ... done (   2.6 sec)
Reading the grid                                   ... done
Mapping shells                                     ... done
Starting the XC term evaluation                    ... done (   2.2 sec)
  promolecular density results
     # of electrons  =    151.995771397
     EX              =   -131.897204376
     EC              =     -5.252719159
     EX+EC           =   -137.149923535
Transforming the Hamiltonian                       ... done (   0.2 sec)
Diagonalizing the Hamiltonian                      ... done (   0.4 sec)
Back transforming the eigenvectors                 ... done (   0.1 sec)
Now organizing SCF variables                       ... done
                      ------------------
                      INITIAL GUESS DONE (   6.1 sec)
                      ------------------
-------------------
DFT GRID GENERATION
-------------------

General Integration Accuracy     IntAcc      ... 4.388
Radial Grid Type                 RadialGrid  ... OptM3 with GC (2021)
Angular Grid (max. ang.)         AngularGrid ... 4 (Lebedev-302)
Angular grid pruning method      GridPruning ... 4 (adaptive)
Weight generation scheme         WeightScheme... Becke
Basis function cutoff            BFCut       ... 1.0000e-11
Integration weight cutoff        WCut        ... 1.0000e-14
Angular grids for H and He will be reduced by one unit
Partially contracted basis set               ... off
Rotationally invariant grid construction     ... off

Total number of grid points                  ...   173128
Total number of batches                      ...     2721
Average number of points per batch           ...       63
Average number of grid points per atom       ...     5246
Time for grid setup =    2.257 sec

--------------------
COSX GRID GENERATION
--------------------

GRIDX 1
-------
General Integration Accuracy     IntAcc      ... 3.816
Radial Grid Type                 RadialGrid  ... OptM3 with GC (2021)
Angular Grid (max. ang.)         AngularGrid ... 1 (Lebedev-50)
Angular grid pruning method      GridPruning ... 4 (adaptive)
Weight generation scheme         WeightScheme... Becke
Basis function cutoff            BFCut       ... 1.0000e-11
Integration weight cutoff        WCut        ... 1.0000e-14
Angular grids for H and He will be reduced by one unit
Partially contracted basis set               ... on
Rotationally invariant grid construction     ... off

Total number of grid points                  ...    22045
Total number of batches                      ...      361
Average number of points per batch           ...       61
Average number of grid points per atom       ...      668
UseSFitting                                  ... on

GRIDX 2
-------
General Integration Accuracy     IntAcc      ... 4.020
Radial Grid Type                 RadialGrid  ... OptM3 with GC (2021)
Angular Grid (max. ang.)         AngularGrid ... 2 (Lebedev-110)
Angular grid pruning method      GridPruning ... 4 (adaptive)
Weight generation scheme         WeightScheme... Becke
Basis function cutoff            BFCut       ... 1.0000e-11
Integration weight cutoff        WCut        ... 1.0000e-14
Angular grids for H and He will be reduced by one unit
Partially contracted basis set               ... on
Rotationally invariant grid construction     ... off

Total number of grid points                  ...    53820
Total number of batches                      ...      859
Average number of points per batch           ...       62
Average number of grid points per atom       ...     1631
UseSFitting                                  ... on

GRIDX 3
-------
General Integration Accuracy     IntAcc      ... 4.338
Radial Grid Type                 RadialGrid  ... OptM3 with GC (2021)
Angular Grid (max. ang.)         AngularGrid ... 3 (Lebedev-194)
Angular grid pruning method      GridPruning ... 4 (adaptive)
Weight generation scheme         WeightScheme... Becke
Basis function cutoff            BFCut       ... 1.0000e-11
Integration weight cutoff        WCut        ... 1.0000e-14
Angular grids for H and He will be reduced by one unit
Partially contracted basis set               ... on
Rotationally invariant grid construction     ... off

Total number of grid points                  ...   116159
Total number of batches                      ...     1831
Average number of points per batch           ...       63
Average number of grid points per atom       ...     3520
UseSFitting                                  ... on

Time for X-Grid setup             =    6.585 sec


--------------------
CPCM SOLVATION MODEL
--------------------
CPCM parameters:
  Epsilon                                         ...       8.9300
  Refrac                                          ...       1.4242
  Rsolv                                           ...       1.3000
  Surface type                                    ... GAUSSIAN VDW
  Epsilon function type                           ...         CPCM
Solvent:                                     ... DICHLOROMETHANE
SMD-CDS solvent descriptors:
  Soln                                       ...    1.4242
  Soln25                                     ...    1.4212
  Sola                                       ...    0.1000
  Solb                                       ...    0.0500
  Solg                                       ...   39.1500
  Solc                                       ...    0.0000
  Solh                                       ...    0.6670
Radii:
 Radius for F  used is    3.2692 Bohr (=   1.7300 Ang.)
 Radius for B  used is    3.6283 Bohr (=   1.9200 Ang.)
 Radius for O  used is    3.9949 Bohr (=   2.1140 Ang.)
 Radius for C  used is    3.4960 Bohr (=   1.8500 Ang.)
 Radius for H  used is    2.2677 Bohr (=   1.2000 Ang.)
Calculating surface                               ...        done! (  0.0s)
GEPOL surface points                              ...         1896
GEPOL Volume                                      ...    2024.1645
GEPOL Surface-area                                ...    1130.6549
Calculating surface distance matrix               ...        done! (  0.1s)
Performing Cholesky decomposition & store         ...        done! (  0.2s)
Overall time for CPCM initialization              ...                 0.2s
 re-compute Schwartz prescreening matrix in partically contracted basis (1) ...done (   0.262 sec)
--------------
SCF ITERATIONS
--------------
ITER       Energy         Delta-E        Max-DP      RMS-DP      [F,P]     Damp
               ***  Starting incremental Fock matrix formation  ***
  0  -1028.6360631068   0.000000000000 0.72051813  0.00179820  0.2366187 0.7000
  1  -1028.8652109072  -0.229147800386 0.53811116  0.00129682  0.1026036 0.7000
                               ***Turning on DIIS***
  2  -1028.9632080201  -0.097997112908 1.32508329  0.00285648  0.0439649 0.0000
  3  -1029.1158356968  -0.152627676631 0.07385734  0.00054886  0.0498641 0.0000
  4  -1029.1468908350  -0.031055138194 0.05477371  0.00022283  0.0102676 0.0000
  5  -1029.1483563418  -0.001465506881 0.03757194  0.00011514  0.0061630 0.0000
                      *** Initiating the SOSCF procedure ***
                           *** Shutting down DIIS ***
                      *** Re-Reading the Fockian *** 
                      *** Removing any level shift *** 
ITER      Energy       Delta-E        Grad      Rot      Max-DP    RMS-DP
  6  -1029.14849516  -0.0001388182  0.000231  0.000231  0.026041  0.000090
               *** Restarting incremental Fock matrix formation ***
  7  -1029.14852642  -0.0000312616  0.000167  0.000843  0.046802  0.000518
  8  -1029.14852853  -0.0000021086  0.000124  0.000324  0.025983  0.000153
  9  -1029.14852938  -0.0000008462  0.000050  0.000151  0.053209  0.000171
 10  -1029.14852962  -0.0000002390  0.000022  0.000061  0.068098  0.000161
 11  -1029.14852961   0.0000000013  0.000015  0.000031  0.096389  0.000198
 12  -1029.14852963  -0.0000000202  0.000004  0.000008  0.076597  0.000206
 13  -1029.14852961   0.0000000199  0.000003  0.000008  0.084742  0.000201
                  ***Gradient check signals convergence***
              ***Rediagonalizing the Fockian in SOSCF/NRSCF***

               *****************************************************
               *                     SUCCESS                       *
               *           SCF CONVERGED AFTER  14 CYCLES          *
               *****************************************************

Old exchange energy                            =    -28.933340071 Eh
New exchange energy                            =    -28.933339364 Eh
Exchange energy change after final integration =      0.000000707 Eh
Total energy after final integration           =  -1029.148528870 Eh
Final COS-X integration done in                =   190.287 sec

SMD CDS free energy correction energy :                -6.50691     Kcal/mol
Total Energy after SMD CDS correction =             -1029.158898298 Eh

----------------
TOTAL SCF ENERGY
----------------

Total Energy       :        -1029.15889830 Eh          -28004.83736 eV

Components:
Nuclear Repulsion  :         1537.73733551 Eh           41843.96021 eV
Electronic Energy  :        -2566.89623381 Eh          -69848.79757 eV
One Electron Energy:        -4458.72719773 Eh         -121328.13525 eV
Two Electron Energy:         1891.83096392 Eh           51479.33769 eV
Max COSX asymmetry :            0.00004178 Eh               0.00114 eV
CPCM Dielectric    :           -0.02752495 Eh              -0.74899 eV
SMD CDS (Gcds)     :           -0.01036943 Eh              -0.28217 eV

Virial components:
Potential Energy   :        -2053.20716114 Eh          -55870.60726 eV
Kinetic Energy     :         1024.04826284 Eh           27865.76990 eV
Virial Ratio       :            2.00499062


DFT components:
N(Alpha)           :       76.000045430748 electrons
N(Beta)            :       76.000045430748 electrons
N(Total)           :      152.000090861496 electrons
E(X)               :     -103.195529629912 Eh       
E(C)               :       -5.902849700394 Eh       
E(XC)              :     -109.098379330306 Eh       
DFET-embed. en.    :        0.000000000000 Eh       
CPCM Solvation Model Properties:
Surface-charge          :           -0.05946808
Charge-correction       :            0.00014611 Eh               0.00398 eV
Free-energy (cav+disp)  :           -0.01036943 Eh              -0.28217 eV

---------------
SCF CONVERGENCE
---------------

  Last Energy change         ...    3.6468e-08  Tolerance :   1.0000e-08
  Last MAX-Density change    ...    5.1070e-15  Tolerance :   1.0000e-07
  Last RMS-Density change    ...    1.7426e-17  Tolerance :   5.0000e-09
  Last Orbital Gradient      ...    2.4146e-06  Tolerance :   1.0000e-05
  Last Orbital Rotation      ...    9.6486e-06  Tolerance :   1.0000e-05

             **** THE GBW FILE WAS UPDATED (x3lyp-train-2.gbw) ****
             **** DENSITY x3lyp-train-2.scfp WAS UPDATED ****
             **** ENERGY FILE WAS UPDATED (x3lyp-train-2.en.tmp) ****
             **** THE GBW FILE WAS UPDATED (x3lyp-train-2.gbw) ****
             **** DENSITY x3lyp-train-2.scfp WAS UPDATED ****
----------------
ORBITAL ENERGIES
----------------

  NO   OCC          E(Eh)            E(eV) 
   0   2.0000     -24.688003      -671.7947 
   1   2.0000     -24.687307      -671.7758 
   2   2.0000     -19.207468      -522.6618 
   3   2.0000     -19.205065      -522.5964 
   4   2.0000     -10.326091      -280.9872 
   5   2.0000     -10.313013      -280.6313 
   6   2.0000     -10.234766      -278.5022 
   7   2.0000     -10.233262      -278.4612 
   8   2.0000     -10.222679      -278.1732 
   9   2.0000     -10.216713      -278.0109 
  10   2.0000     -10.213952      -277.9358 
  11   2.0000     -10.213528      -277.9242 
  12   2.0000     -10.212884      -277.9067 
  13   2.0000     -10.210947      -277.8540 
  14   2.0000     -10.209670      -277.8192 
  15   2.0000     -10.209633      -277.8182 
  16   2.0000     -10.209002      -277.8011 
  17   2.0000     -10.206320      -277.7281 
  18   2.0000     -10.206063      -277.7211 
  19   2.0000     -10.205026      -277.6929 
  20   2.0000     -10.204448      -277.6771 
  21   2.0000      -6.871413      -186.9807 
  22   2.0000      -1.209138       -32.9023 
  23   2.0000      -1.173586       -31.9349 
  24   2.0000      -1.115716       -30.3602 
  25   2.0000      -1.089460       -29.6457 
  26   2.0000      -0.887687       -24.1552 
  27   2.0000      -0.883235       -24.0340 
  28   2.0000      -0.834125       -22.6977 
  29   2.0000      -0.810140       -22.0450 
  30   2.0000      -0.785231       -21.3672 
  31   2.0000      -0.768196       -20.9037 
  32   2.0000      -0.767021       -20.8717 
  33   2.0000      -0.756284       -20.5795 
  34   2.0000      -0.703582       -19.1454 
  35   2.0000      -0.672313       -18.2946 
  36   2.0000      -0.638929       -17.3861 
  37   2.0000      -0.624623       -16.9968 
  38   2.0000      -0.622771       -16.9465 
  39   2.0000      -0.611103       -16.6290 
  40   2.0000      -0.583921       -15.8893 
  41   2.0000      -0.564143       -15.3511 
  42   2.0000      -0.553365       -15.0578 
  43   2.0000      -0.529017       -14.3953 
  44   2.0000      -0.521240       -14.1837 
  45   2.0000      -0.520520       -14.1641 
  46   2.0000      -0.500207       -13.6113 
  47   2.0000      -0.490479       -13.3466 
  48   2.0000      -0.480182       -13.0664 
  49   2.0000      -0.476225       -12.9587 
  50   2.0000      -0.466310       -12.6889 
  51   2.0000      -0.454678       -12.3724 
  52   2.0000      -0.446903       -12.1609 
  53   2.0000      -0.444512       -12.0958 
  54   2.0000      -0.443747       -12.0750 
  55   2.0000      -0.436759       -11.8848 
  56   2.0000      -0.435567       -11.8524 
  57   2.0000      -0.422989       -11.5101 
  58   2.0000      -0.414862       -11.2890 
  59   2.0000      -0.405193       -11.0259 
  60   2.0000      -0.398773       -10.8512 
  61   2.0000      -0.392009       -10.6671 
  62   2.0000      -0.389393       -10.5959 
  63   2.0000      -0.379307       -10.3215 
  64   2.0000      -0.370967       -10.0945 
  65   2.0000      -0.369748       -10.0613 
  66   2.0000      -0.362007        -9.8507 
  67   2.0000      -0.355462        -9.6726 
  68   2.0000      -0.336835        -9.1657 
  69   2.0000      -0.335598        -9.1321 
  70   2.0000      -0.304574        -8.2879 
  71   2.0000      -0.292036        -7.9467 
  72   2.0000      -0.272967        -7.4278 
  73   2.0000      -0.271133        -7.3779 
  74   2.0000      -0.270879        -7.3710 
  75   2.0000      -0.244774        -6.6606 
  76   0.0000      -0.107376        -2.9218 
  77   0.0000      -0.047114        -1.2820 
  78   0.0000      -0.020409        -0.5554 
  79   0.0000      -0.019177        -0.5218 
  80   0.0000      -0.007275        -0.1980 
  81   0.0000      -0.005808        -0.1580 
  82   0.0000       0.001858         0.0506 
  83   0.0000       0.010030         0.2729 
  84   0.0000       0.013922         0.3788 
  85   0.0000       0.019991         0.5440 
  86   0.0000       0.022767         0.6195 
  87   0.0000       0.023854         0.6491 
  88   0.0000       0.029125         0.7925 
  89   0.0000       0.030027         0.8171 
  90   0.0000       0.034680         0.9437 
  91   0.0000       0.036946         1.0054 
  92   0.0000       0.042361         1.1527 
  93   0.0000       0.043833         1.1928 
  94   0.0000       0.044481         1.2104 
  95   0.0000       0.048707         1.3254 
  96   0.0000       0.050124         1.3639 
  97   0.0000       0.056106         1.5267 
  98   0.0000       0.057408         1.5622 
  99   0.0000       0.065129         1.7723 
 100   0.0000       0.065772         1.7898 
 101   0.0000       0.068505         1.8641 
 102   0.0000       0.074667         2.0318 
 103   0.0000       0.077066         2.0971 
 104   0.0000       0.077672         2.1136 
 105   0.0000       0.084412         2.2970 
 106   0.0000       0.089784         2.4431 
 107   0.0000       0.092270         2.5108 
 108   0.0000       0.095450         2.5973 
 109   0.0000       0.096808         2.6343 
 110   0.0000       0.098931         2.6921 
 111   0.0000       0.102034         2.7765 
 112   0.0000       0.104337         2.8391 
 113   0.0000       0.109305         2.9743 
 114   0.0000       0.110170         2.9979 
 115   0.0000       0.112581         3.0635 
 116   0.0000       0.114911         3.1269 
 117   0.0000       0.119598         3.2544 
 118   0.0000       0.119681         3.2567 
 119   0.0000       0.122763         3.3405 
 120   0.0000       0.123516         3.3610 
 121   0.0000       0.126028         3.4294 
 122   0.0000       0.129268         3.5176 
 123   0.0000       0.129755         3.5308 
 124   0.0000       0.133962         3.6453 
 125   0.0000       0.137439         3.7399 
 126   0.0000       0.137912         3.7528 
 127   0.0000       0.139073         3.7844 
 128   0.0000       0.142250         3.8708 
 129   0.0000       0.144776         3.9396 
 130   0.0000       0.145966         3.9719 
 131   0.0000       0.148212         4.0331 
 132   0.0000       0.148841         4.0502 
 133   0.0000       0.151687         4.1276 
 134   0.0000       0.152348         4.1456 
 135   0.0000       0.153366         4.1733 
 136   0.0000       0.156603         4.2614 
 137   0.0000       0.162612         4.4249 
 138   0.0000       0.163791         4.4570 
 139   0.0000       0.165661         4.5079 
 140   0.0000       0.168754         4.5920 
 141   0.0000       0.172406         4.6914 
 142   0.0000       0.176739         4.8093 
 143   0.0000       0.179392         4.8815 
 144   0.0000       0.181167         4.9298 
 145   0.0000       0.182413         4.9637 
 146   0.0000       0.186302         5.0695 
 147   0.0000       0.187439         5.1005 
 148   0.0000       0.190968         5.1965 
 149   0.0000       0.194838         5.3018 
 150   0.0000       0.196659         5.3514 
 151   0.0000       0.198560         5.4031 
 152   0.0000       0.202068         5.4985 
 153   0.0000       0.203727         5.5437 
 154   0.0000       0.207156         5.6370 
 155   0.0000       0.208120         5.6632 
 156   0.0000       0.211630         5.7587 
 157   0.0000       0.213466         5.8087 
 158   0.0000       0.220642         6.0040 
 159   0.0000       0.222550         6.0559 
 160   0.0000       0.223674         6.0865 
 161   0.0000       0.225225         6.1287 
 162   0.0000       0.228016         6.2046 
[...]

Total time                  ....     340.405 sec
Sum of individual times     ....     335.666 sec  ( 98.6%)

Fock matrix formation       ....     323.679 sec  ( 95.1%)
  Split-RI-J                ....      17.103 sec  (  5.3% of F)
  Chain of spheres X        ....     280.759 sec  ( 86.7% of F)
  XC integration            ....      14.799 sec  (  4.6% of F)
    Basis function eval.    ....       2.425 sec  ( 16.4% of XC)
    Density eval.           ....       5.968 sec  ( 40.3% of XC)
    XC-Functional eval.     ....       0.226 sec  (  1.5% of XC)
    XC-Potential eval.      ....       5.890 sec  ( 39.8% of XC)
Diagonalization             ....       0.555 sec  (  0.2%)
Density matrix formation    ....       0.064 sec  (  0.0%)
Population analysis         ....       0.602 sec  (  0.2%)
Initial guess               ....       1.197 sec  (  0.4%)
Orbital Transformation      ....       0.000 sec  (  0.0%)
Orbital Orthonormalization  ....       1.102 sec  (  0.3%)
DIIS solution               ....       0.228 sec  (  0.1%)
SOSCF solution              ....       0.449 sec  (  0.1%)
Grid generation             ....       8.892 sec  (  2.6%)

Maximum memory used throughout the entire SCF-calculation: 318.5 MB


           ************************************************************
           *        Program running with 4 parallel MPI-processes     *
           *              working on a common directory               *
           ************************************************************
------------------------------------------------------------------------------
                        ORCA TD-DFT/TDA CALCULATION
------------------------------------------------------------------------------

Input orbitals are from        ... x3lyp-train-2_job2.gbw
CI-vector output               ... x3lyp-train-2_job2.cis
Tamm-Dancoff approximation     ... operative
CIS-Integral strategy          ... AO-integrals
Integral handling              ... AO integral Direct
Max. core memory used          ... 4000 MB
Reference state                ... RHF
Generation of triplets         ... off
Follow IRoot                   ... off
Number of operators            ... 1
Orbital ranges used for CIS calculation:
 Operator 0:  Orbitals  22... 75  to  76...1165
XAS localization array:
 Operator 0:  Orbitals  -1... -1

-------------------
XC-INTEGRATION GRID
-------------------

General Integration Accuracy     IntAcc      ... 3.467
Radial Grid Type                 RadialGrid  ... OptM3 with GC (2021)
Angular Grid (max. ang.)         AngularGrid ... 1 (Lebedev-50)
Angular grid pruning method      GridPruning ... 4 (adaptive)
Weight generation scheme         WeightScheme... Becke
Basis function cutoff            BFCut       ... 1.0000e-11
Integration weight cutoff        WCut        ... 1.0000e-14
Angular grids for H and He will be reduced by one unit
Partially contracted basis set               ... off
Rotationally invariant grid construction     ... off

Total number of grid points                  ...    26257
Total number of batches                      ...      423
Average number of points per batch           ...       62
Average number of grid points per atom       ...      796

---------------------
COSX-INTEGRATION GRID
---------------------

General Integration Accuracy     IntAcc      ... 3.067
Radial Grid Type                 RadialGrid  ... OptM3 with GC (2021)
Angular Grid (max. ang.)         AngularGrid ... 1 (Lebedev-50)
Angular grid pruning method      GridPruning ... 4 (adaptive)
Weight generation scheme         WeightScheme... Becke
Basis function cutoff            BFCut       ... 1.0000e-11
Integration weight cutoff        WCut        ... 1.0000e-14
Angular grids for H and He will be reduced by one unit
Partially contracted basis set               ... on
Rotationally invariant grid construction     ... off

Total number of grid points                  ...    11808
Total number of batches                      ...      199
Average number of points per batch           ...       59
Average number of grid points per atom       ...      358

---------------
TD-DFT XC SETUP
---------------

DFT calculation                         ... on
Name of the grid file                   ... x3lyp-train-2_job2.grid_cis.tmp
Exchange functional (TD-DFT)            ... X
Correlation functional (TD-DFT)         ... LYP
 LDA part of GGA corr.  LDAOpt (TD-DFT) ... VWN-5
Hybrid DFT                              ... on
   Exchange mixing (TD-DFT)             ...  0.218
   GGA exch. scaling (TD-DFT)           ...  0.709
   GGA corr. scaling (TD-DFT)           ...  0.871

Building densities             ... done
Calculating rho(r) on the grid ... done
Building xc-kernel on the grid ... done
                    *** TD-DFT CALCULATION INITIALIZED ***

---------------------------------
    LR-CPCM (non-equilibrium)
---------------------------------

Setting up LR-CPCM             ... done

------------------------
DAVIDSON-DIAGONALIZATION
------------------------

Dimension of the eigenvalue problem            ...  58860
Number of roots to be determined               ...     10
Maximum size of the expansion space            ...     70
Maximum number of iterations                   ...    100
Convergence tolerance for the residual         ...    1.000e-06
Convergence tolerance for the energies         ...    1.000e-06
Orthogonality tolerance                        ...    1.000e-14
Level Shift                                    ...    0.000e+00
Constructing the preconditioner                ... o.k.
Building the initial guess                     ... o.k.
Number of trial vectors determined             ...     70


                       ****Iteration    0****

   Memory handling for direct AO based CIS:
   Memory per vector needed      ...    62 MB
   Memory needed                 ...  1867 MB
   Memory available              ...  4000 MB
   Number of vectors per batch   ...    64
   Number of batches             ...     1
   Time for densities:            0.745
   Time for RI-J (Direct):       23.278
   Time for K (COSX):           126.459
   Time for XC-Integration:      53.740
   Time for LR-CPCM terms:       27.669
   Time for Sigma-Completion:     0.527
   Size of expansion space: 30
   Lowest Energy          :     0.128075192252
   Maximum Energy change  :     0.201085469486 (vector 9)
   Maximum residual norm  :     0.015650491034

                       ****Iteration    1****
   Time for densities:            0.248
   Time for RI-J (Direct):       14.698
   Time for K (COSX):            43.274
   Time for XC-Integration:      19.031
   Time for LR-CPCM terms:       13.068
   Time for Sigma-Completion:     0.184
   Size of expansion space: 40
   Lowest Energy          :     0.118920819068
   Maximum Energy change  :     0.011467979184 (vector 5)
   Maximum residual norm  :     0.001073189042

                       ****Iteration    2****
   Time for densities:            0.251
   Time for RI-J (Direct):       15.525
   Time for K (COSX):            43.854
   Time for XC-Integration:      18.778
   Time for LR-CPCM terms:       13.031
   Time for Sigma-Completion:     0.176
   Size of expansion space: 50
   Lowest Energy          :     0.118546078160
   Maximum Energy change  :     0.001254919464 (vector 7)
   Maximum residual norm  :     0.000177494698

                       ****Iteration    3****
   Time for densities:            0.239
   Time for RI-J (Direct):       15.370
   Time for K (COSX):            45.068
   Time for XC-Integration:      19.258
   Time for LR-CPCM terms:       12.993
   Time for Sigma-Completion:     0.182
   Size of expansion space: 60
   Lowest Energy          :     0.118507331902
   Maximum Energy change  :     0.000266532396 (vector 7)
   Maximum residual norm  :     0.000012413260

                       ****Iteration    4****
   Time for densities:            0.238
   Time for RI-J (Direct):       14.896
   Time for K (COSX):            44.538
   Time for XC-Integration:      19.504
   Time for LR-CPCM terms:       12.987
   Time for Sigma-Completion:     0.174
   Size of expansion space: 70
   Lowest Energy          :     0.118506070640
   Maximum Energy change  :     0.000016104931 (vector 7)
   Maximum residual norm  :     0.000001604863
   Rebuilding the expansion space

                       ****Iteration    5****
   Time for densities:            0.474
   Time for RI-J (Direct):       17.965
   Time for K (COSX):            85.529
   Time for XC-Integration:      36.813
   Time for LR-CPCM terms:       21.531
   Time for Sigma-Completion:     0.379
   Size of expansion space: 20
   Lowest Energy          :     0.118505839031
   Maximum Energy change  :     0.000002040058 (vector 7)
   Maximum residual norm  :     0.000000161939

      *** CONVERGENCE OF RESIDUAL NORM REACHED ***

Storing the converged CI vectors               ... x3lyp-train-2_job2.cis1

                 *** DAVIDSON DONE ***

Total time for solving the CIS problem:   765.434sec

------------------------------------
TD-DFT/TDA EXCITED STATES (SINGLETS)
------------------------------------

the weight of the individual excitations are printed if larger than 1.0e-02

STATE  1:  E=   0.118506 au      3.225 eV    26009.0 cm**-1 <S**2> =   0.000000
    75a ->  76a  :     0.971835 (c= -0.98581670)

STATE  2:  E=   0.138074 au      3.757 eV    30303.7 cm**-1 <S**2> =   0.000000
    73a ->  76a  :     0.133120 (c= -0.36485555)
    74a ->  76a  :     0.834765 (c=  0.91365458)

STATE  3:  E=   0.142286 au      3.872 eV    31228.2 cm**-1 <S**2> =   0.000000
    72a ->  76a  :     0.939321 (c= -0.96918598)
    73a ->  76a  :     0.028946 (c= -0.17013506)
    75a ->  78a  :     0.015499 (c= -0.12449424)

STATE  4:  E=   0.149082 au      4.057 eV    32719.7 cm**-1 <S**2> =   0.000000
    70a ->  76a  :     0.042018 (c=  0.20498317)
    72a ->  76a  :     0.025848 (c=  0.16077269)
    73a ->  76a  :     0.753913 (c= -0.86828181)
    74a ->  76a  :     0.122677 (c= -0.35025252)
    75a ->  77a  :     0.028094 (c= -0.16761317)

STATE  5:  E=   0.152183 au      4.141 eV    33400.4 cm**-1 <S**2> =   0.000000
    70a ->  76a  :     0.921759 (c= -0.96008295)
    70a ->  77a  :     0.021342 (c= -0.14608805)
    73a ->  76a  :     0.034286 (c= -0.18516425)

STATE  6:  E=   0.170543 au      4.641 eV    37429.8 cm**-1 <S**2> =   0.000000
    71a ->  76a  :     0.917804 (c= -0.95802078)
    73a ->  77a  :     0.019160 (c=  0.13841787)
    75a ->  80a  :     0.012302 (c=  0.11091594)

STATE  7:  E=   0.179797 au      4.893 eV    39460.9 cm**-1 <S**2> =   0.000000
    68a ->  76a  :     0.558286 (c= -0.74718558)
    69a ->  76a  :     0.363949 (c= -0.60328210)
    75a ->  77a  :     0.042297 (c= -0.20566242)

STATE  8:  E=   0.181922 au      4.950 eV    39927.3 cm**-1 <S**2> =   0.000000
    68a ->  76a  :     0.060527 (c= -0.24602182)
    70a ->  86a  :     0.015398 (c=  0.12408907)
    73a ->  76a  :     0.015353 (c= -0.12390696)
    75a ->  77a  :     0.844176 (c=  0.91879067)

STATE  9:  E=   0.190359 au      5.180 eV    41779.1 cm**-1 <S**2> =   0.000000
    72a ->  76a  :     0.018265 (c=  0.13514970)
    72a ->  77a  :     0.436766 (c= -0.66088238)
    72a ->  80a  :     0.030709 (c=  0.17524117)
    73a ->  77a  :     0.014548 (c= -0.12061320)
    73a ->  78a  :     0.032341 (c=  0.17983586)
    74a ->  78a  :     0.010241 (c=  0.10119544)
    75a ->  78a  :     0.389174 (c= -0.62383828)
    75a ->  79a  :     0.036049 (c=  0.18986556)

STATE 10:  E=   0.193135 au      5.255 eV    42388.3 cm**-1 <S**2> =   0.000000
    73a ->  77a  :     0.073471 (c= -0.27105578)
    73a ->  79a  :     0.070156 (c=  0.26487032)
    74a ->  76a  :     0.010022 (c=  0.10010943)
    74a ->  77a  :     0.486061 (c=  0.69718062)
    74a ->  80a  :     0.031464 (c=  0.17738123)
    75a ->  78a  :     0.023335 (c=  0.15275785)
    75a ->  79a  :     0.255708 (c=  0.50567610)
    75a ->  80a  :     0.010144 (c=  0.10071970)


-----------------------------
TD-DFT/TDA-EXCITATION SPECTRA
-----------------------------

Center of mass = (  0.2148,  0.6272,  1.0437)
Calculating the Dipole integrals                  ... done
Transforming integrals                            ... done
Calculating the Linear Momentum integrals         ... done
Transforming integrals                            ... done
Calculating angular momentum integrals            ... done
Transforming integrals                            ... done

-----------------------------------------------------------------------------
         ABSORPTION SPECTRUM VIA TRANSITION ELECTRIC DIPOLE MOMENTS
-----------------------------------------------------------------------------
State   Energy    Wavelength  fosc         T2        TX        TY        TZ  
        (cm-1)      (nm)                 (au**2)    (au)      (au)      (au) 
-----------------------------------------------------------------------------
   1   26009.0    384.5   1.609443475  20.37170   4.40480   0.98095   0.08500
   2   30303.7    330.0   0.025984543   0.28229   0.34524   0.29571   0.27505
   3   31228.2    320.2   0.013717213   0.14461   0.18238  -0.11039  -0.31490
   4   32719.7    305.6   0.169405539   1.70449   0.46843  -0.51187  -1.10592
   5   33400.4    299.4   0.011200999   0.11040   0.16255  -0.10783  -0.26899
   6   37429.8    267.2   0.020261602   0.17821   0.32976   0.18431   0.18840
   7   39460.9    253.4   0.005329561   0.04446   0.10150   0.13765   0.12334
   8   39927.3    250.5   0.134963054   1.11281  -0.42729  -0.56483  -0.78179
   9   41779.1    239.4   0.000117463   0.00093  -0.00796   0.01214   0.02674
  10   42388.3    235.9   0.004207169   0.03268  -0.15783  -0.08097  -0.03476

-----------------------------------------------------------------------------
         ABSORPTION SPECTRUM VIA TRANSITION VELOCITY DIPOLE MOMENTS
-----------------------------------------------------------------------------
State   Energy    Wavelength   fosc        P2         PX        PY        PZ  
        (cm-1)      (nm)                 (au**2)     (au)      (au)      (au) 
-----------------------------------------------------------------------------
   1   26009.0    384.5   0.668475208   0.11883  -0.33556  -0.07801  -0.01186
   2   30303.7    330.0   0.002230408   0.00046  -0.01338   0.01017   0.01340
   3   31228.2    320.2   0.000819875   0.00017   0.00421  -0.00470  -0.01163
   4   32719.7    305.6   0.023668515   0.00529  -0.02232   0.03914   0.05712
   5   33400.4    299.4   0.001698705   0.00039  -0.01040   0.00131   0.01667
   6   37429.8    267.2   0.002882513   0.00074   0.01995  -0.00802  -0.01659
   7   39460.9    253.4   0.002719792   0.00073  -0.02106   0.00014  -0.01702
   8   39927.3    250.5   0.068006105   0.01856   0.07214   0.07087   0.09128
   9   41779.1    239.4   0.000051566   0.00001  -0.00249   0.00116   0.00268
  10   42388.3    235.9   0.001496655   0.00043   0.01956   0.00654   0.00288

-------------------------------------------------------------------
                             CD SPECTRUM
-------------------------------------------------------------------
State  Energy     Wavelength     R         MX        MY        MZ   
       (cm-1)       (nm)     (1e40*cgs)   (au)      (au)      (au)  
-------------------------------------------------------------------
   1   26009.0    384.5     -0.06962  -0.02991   0.14118  -0.08128
   2   30303.7    330.0     -0.75522   0.02024  -0.05679   0.02982
   3   31228.2    320.2     -0.05287   0.00957  -0.04067   0.02015
   4   32719.7    305.6     10.87166   0.05315  -0.03157   0.01627
   5   33400.4    299.4     -0.85178  -0.08313  -0.03290  -0.03033
   6   37429.8    267.2     -4.63583   0.03115  -0.21167   0.10036
   7   39460.9    253.4     -2.57408  -0.05928   0.00082   0.00360
   8   39927.3    250.5     13.90492  -0.01119  -0.01392  -0.02155
   9   41779.1    239.4      0.07974  -0.01205   0.04679  -0.01850
  10   42388.3    235.9      0.45600  -0.00064  -0.00889  -0.00419

-------------------------------------------------------------------
         CD SPECTRUM VIA TRANSITION VELOCITY DIPOLE MOMENTS        
-------------------------------------------------------------------
State  Energy     Wavelength     R         MX        MY        MZ   
       (cm-1)       (nm)     (1e40*cgs)   (au)      (au)      (au)  
-------------------------------------------------------------------
   1   26009.0    384.5     -0.05821  -0.02991   0.14118  -0.08128
   2   30303.7    330.0     -1.53311   0.02024  -0.05679   0.02982
   3   31228.2    320.2     -0.00983   0.00957  -0.04067   0.02015
   4   32719.7    305.6     -4.72044   0.05315  -0.03157   0.01627
   5   33400.4    299.4      0.97688  -0.08313  -0.03290  -0.03033
   6   37429.8    267.2      1.80930   0.03115  -0.21167   0.10036
   7   39460.9    253.4      3.11394  -0.05928   0.00082   0.00360
   8   39927.3    250.5     -9.74674  -0.01119  -0.01392  -0.02155
   9   41779.1    239.4      0.08548  -0.01205   0.04679  -0.01850
  10   42388.3    235.9     -0.20219  -0.00064  -0.00889  -0.00419

Total run time:      774.080 sec

           *** ORCA-CIS/TD-DFT FINISHED WITHOUT ERROR ***

Maximum memory used throughout the entire CIS-calculation: 1684.0 MB

-----------------------
CIS/TD-DFT TOTAL ENERGY
-----------------------

    E(SCF)  =  -1029.161116546 Eh
    DE(CIS) =      0.118505839 Eh (Root  1)
    ----------------------------- ---------
    E(tot)  =  -1029.042610707 Eh


-------------------------   --------------------
FINAL SINGLE POINT ENERGY     -1029.042610707081
-------------------------   --------------------


                            ***************************************
                            *     ORCA property calculations      *
                            ***************************************

                                    ---------------------
                                    Active property flags
                                    ---------------------
   (+) Dipole Moment


------------------------------------------------------------------------------
                       ORCA ELECTRIC PROPERTIES CALCULATION
------------------------------------------------------------------------------

Dipole Moment Calculation                       ... on
Quadrupole Moment Calculation                   ... off
Polarizability Calculation                      ... off
GBWName                                         ... x3lyp-train-2_job2.gbw
Electron density                                ... x3lyp-train-2_job2.scfp
The origin for moment calculation is the CENTER OF MASS  = ( 0.214827,  0.627229  1.043674)

-------------
DIPOLE MOMENT
-------------
                                X             Y             Z
Electronic contribution:      4.00903      10.62969      17.07688
Nuclear contribution   :     -4.55860     -13.10439     -21.14869
                        -----------------------------------------
Total Dipole Moment    :     -0.54958      -2.47470      -4.07181
                        -----------------------------------------
Magnitude (a.u.)       :      4.79644
Magnitude (Debye)      :     12.19157



--------------------
Rotational spectrum 
--------------------
 
Rotational constants in cm-1:     0.015687     0.003849     0.003151 
Rotational constants in MHz :   470.283021   115.400375    94.454862 

 Dipole components along the rotational axes: 
x,y,z [a.u.] :    -1.573185    -4.531090     0.010867 
x,y,z [Debye]:    -3.998720   -11.517114     0.027622 

 

Timings for individual modules:

Sum of individual times         ...     1121.218 sec (=  18.687 min)
GTO integral calculation        ...        5.388 sec (=   0.090 min)   0.5 %
SCF iterations                  ...      341.097 sec (=   5.685 min)  30.4 %
CIS module                      ...      774.733 sec (=  12.912 min)  69.1 %



                             ****ORCA TERMINATED NORMALLY****
TOTAL RUN TIME: 0 days 9 hours 34 minutes 10 seconds 663 msec
