
                                 *****************
                                 * O   R   C   A *
                                 *****************

                                            #,                                       
                                            ###                                      
                                            ####                                     
                                            #####                                    
                                            ######                                   
                                           ########,                                 
                                     ,,################,,,,,                         
                               ,,#################################,,                 
                          ,,##########################################,,             
                       ,#########################################, ''#####,          
                    ,#############################################,,   '####,        
                  ,##################################################,,,,####,       
                ,###########''''           ''''###############################       
              ,#####''   ,,,,##########,,,,          '''####'''          '####       
            ,##' ,,,,###########################,,,                        '##       
           ' ,,###''''                  '''############,,,                           
         ,,##''                                '''############,,,,        ,,,,,,###''
      ,#''                                            '''#######################'''  
     '                                                          ''''####''''         
             ,#######,   #######,   ,#######,      ##                                
            ,#'     '#,  ##    ##  ,#'     '#,    #''#        ######   ,####,        
            ##       ##  ##   ,#'  ##            #'  '#       #        #'  '#        
            ##       ##  #######   ##           ,######,      #####,   #    #        
            '#,     ,#'  ##    ##  '#,     ,#' ,#      #,         ##   #,  ,#        
             '#######'   ##     ##  '#######'  #'      '#     #####' # '####'        



                  #######################################################
                  #                        -***-                        #
                  #          Department of theory and spectroscopy      #
                  #    Directorship and core code : Frank Neese         #
                  #        Max Planck Institute fuer Kohlenforschung    #
                  #                Kaiser Wilhelm Platz 1               #
                  #                 D-45470 Muelheim/Ruhr               #
                  #                      Germany                        #
                  #                                                     #
                  #                  All rights reserved                #
                  #                        -***-                        #
                  #######################################################


                         Program Version 5.0.2 -  RELEASE  -


 With contributions from (in alphabetic order):
   Daniel Aravena         : Magnetic Suceptibility
   Michael Atanasov       : Ab Initio Ligand Field Theory (pilot matlab implementation)
   Alexander A. Auer      : GIAO ZORA, VPT2 properties, NMR spectrum
   Ute Becker             : Parallelization
   Giovanni Bistoni       : ED, misc. LED, open-shell LED, HFLD
   Martin Brehm           : Molecular dynamics
   Dmytro Bykov           : SCF Hessian
   Vijay G. Chilkuri      : MRCI spin determinant printing, contributions to CSF-ICE
   Dipayan Datta          : RHF DLPNO-CCSD density
   Achintya Kumar Dutta   : EOM-CC, STEOM-CC
   Dmitry Ganyushin       : Spin-Orbit,Spin-Spin,Magnetic field MRCI
   Miquel Garcia          : C-PCM and meta-GGA Hessian, CC/C-PCM, Gaussian charge scheme
   Yang Guo               : DLPNO-NEVPT2, F12-NEVPT2, CIM, IAO-localization
   Andreas Hansen         : Spin unrestricted coupled pair/coupled cluster methods
   Benjamin Helmich-Paris : MC-RPA, TRAH-SCF, COSX integrals
   Lee Huntington         : MR-EOM, pCC
   Robert Izsak           : Overlap fitted RIJCOSX, COSX-SCS-MP3, EOM
   Marcus Kettner         : VPT2
   Christian Kollmar      : KDIIS, OOCD, Brueckner-CCSD(T), CCSD density, CASPT2, CASPT2-K
   Simone Kossmann        : Meta GGA functionals, TD-DFT gradient, OOMP2, MP2 Hessian
   Martin Krupicka        : Initial AUTO-CI
   Lucas Lang             : DCDCAS
   Marvin Lechner         : AUTO-CI (C++ implementation), FIC-MRCC
   Dagmar Lenk            : GEPOL surface, SMD
   Dimitrios Liakos       : Extrapolation schemes; Compound Job, initial MDCI parallelization
   Dimitrios Manganas     : Further ROCIS development; embedding schemes
   Dimitrios Pantazis     : SARC Basis sets
   Anastasios Papadopoulos: AUTO-CI, single reference methods and gradients
   Taras Petrenko         : DFT Hessian,TD-DFT gradient, ASA, ECA, R-Raman, ABS, FL, XAS/XES, NRVS
   Peter Pinski           : DLPNO-MP2, DLPNO-MP2 Gradient
   Christoph Reimann      : Effective Core Potentials
   Marius Retegan         : Local ZFS, SOC
   Christoph Riplinger    : Optimizer, TS searches, QM/MM, DLPNO-CCSD(T), (RO)-DLPNO pert. Triples
   Tobias Risthaus        : Range-separated hybrids, TD-DFT gradient, RPA, STAB
   Michael Roemelt        : Original ROCIS implementation
   Masaaki Saitow         : Open-shell DLPNO-CCSD energy and density
   Barbara Sandhoefer     : DKH picture change effects
   Avijit Sen             : IP-ROCIS
   Kantharuban Sivalingam : CASSCF convergence, NEVPT2, FIC-MRCI
   Bernardo de Souza      : ESD, SOC TD-DFT
   Georgi Stoychev        : AutoAux, RI-MP2 NMR, DLPNO-MP2 response
   Willem Van den Heuvel  : Paramagnetic NMR
   Boris Wezisla          : Elementary symmetry handling
   Frank Wennmohs         : Technical directorship


 We gratefully acknowledge several colleagues who have allowed us to
 interface, adapt or use parts of their codes:
   Stefan Grimme, W. Hujo, H. Kruse, P. Pracht,  : VdW corrections, initial TS optimization,
                  C. Bannwarth, S. Ehlert          DFT functionals, gCP, sTDA/sTD-DF
   Ed Valeev, F. Pavosevic, A. Kumar             : LibInt (2-el integral package), F12 methods
   Garnet Chan, S. Sharma, J. Yang, R. Olivares  : DMRG
   Ulf Ekstrom                                   : XCFun DFT Library
   Mihaly Kallay                                 : mrcc  (arbitrary order and MRCC methods)
   Jiri Pittner, Ondrej Demel                    : Mk-CCSD
   Frank Weinhold                                : gennbo (NPA and NBO analysis)
   Christopher J. Cramer and Donald G. Truhlar   : smd solvation model
   Lars Goerigk                                  : TD-DFT with DH, B97 family of functionals
   V. Asgeirsson, H. Jonsson                     : NEB implementation
   FAccTs GmbH                                   : IRC, NEB, NEB-TS, DLPNO-Multilevel, CI-OPT
                                                   MM, QMMM, 2- and 3-layer-ONIOM, Crystal-QMMM,
                                                   LR-CPCM, SF, NACMEs, symmetry and pop. for TD-DFT,
                                                   nearIR, NL-DFT gradient (VV10), updates on ESD,
                                                   ML-optimized integration grids
   S Lehtola, MJT Oliveira, MAL Marques          : LibXC Library
   Liviu Ungur et al                             : ANISO software


 Your calculation uses the libint2 library for the computation of 2-el integrals
 For citations please refer to: http://libint.valeyev.net

 Your ORCA version has been built with support for libXC version: 5.1.0
 For citations please refer to: https://tddft.org/programs/libxc/

 This ORCA versions uses:
   CBLAS   interface :  Fast vector & matrix operations
   LAPACKE interface :  Fast linear algebra routines
   SCALAPACK package :  Parallel linear algebra routines
   Shared memory     :  Shared parallel matrices
   BLAS/LAPACK       :  OpenBLAS 0.3.15  USE64BITINT DYNAMIC_ARCH NO_AFFINITY Sandybridge SINGLE_THREADED
        Core in use  :  Sandybridge
   Copyright (c) 2011-2014, The OpenBLAS Project


Your calculation utilizes the SMD solvation module
Please cite in your paper:
A.V. Marenich, C.J. Cramer, D.G. Truhlar J. Phys. Chem. B, 113, (2009), 6378 

XCFun DFT library Copyright 2009-2010 Ulf Ekstrom and contributors.
See http://admol.org/xcfun for more information.
This is free software; see the source code for copying conditions.
There is ABSOLUTELY NO WARRANTY; not even for MERCHANTABILITY or FITNESS FOR A PARTICULAR PURPOSE.
For details see the documentation.
Scientific users of this library should cite U. Ekstrom, L. Visscher, R. Bast, A. J. Thorvaldsen and K. Ruud;
J.Chem.Theor.Comp. 2010, DOI: 10.1021/ct100117s
XCFun Version 0.99 

================================================================================

----- Orbital basis set information -----
Your calculation utilizes the basis: aug-cc-pVTZ 
    H, B-Ne : Obtained from the ccRepo (grant-hill.group.shef.ac.uk/ccrepo) Feb. 2017
              R. A. Kendall, T. H. Dunning, Jr., R. J. Harrison, J. Chem. Phys. 96, 6796 (1992)
         He : Obtained from the ccRepo (grant-hill.group.shef.ac.uk/ccrepo) Feb. 2017
              D. E. Woon, T. H. Dunning, Jr., J. Chem. Phys. 100, 2975 (1994)
  Li-Be, Na : Obtained from the ccRepo (grant-hill.group.shef.ac.uk/ccrepo) Feb. 2017
              B. P. Prascher, D. E. Woon, K. A. Peterson, T. H. Dunning, Jr., A. K. Wilson, Theor. Chem. Acc. 128, 69 (2011)
         Mg : Obtained from the Peterson Research Group Website (tyr0.chem.wsu.edu/~kipeters) Feb. 2017
              B. P. Prascher, D. E. Woon, K. A. Peterson, T. H. Dunning, Jr., A. K. Wilson, Theor. Chem. Acc. 128, 69 (2011)
      Al-Ar : Obtained from the ccRepo (grant-hill.group.shef.ac.uk/ccrepo) Feb. 2017
              D. E. Woon, T. H. Dunning, Jr., J. Chem. Phys. 98, 1358 (1993)
      Sc-Zn : Obtained from the ccRepo (grant-hill.group.shef.ac.uk/ccrepo) Feb. 2017
              N. B. Balabanov, K. A. Peterson, J. Chem. Phys. 123, 064107 (2005)
              N. B. Balabanov, K. A. Peterson, J. Chem. Phys. 125, 074110 (2006)
      Ga-Kr : Obtained from the ccRepo (grant-hill.group.shef.ac.uk/ccrepo) Feb. 2017
              A. K. Wilson, D. E. Woon, K. A. Peterson, T. H. Dunning, Jr., J. Chem. Phys. 110, 7667 (1999)
     Ag, Au : Obtained from the Peterson Research Group Website (tyr0.chem.wsu.edu/~kipeters) Feb. 2017
              K. A. Peterson, C. Puzzarini, Theor. Chem. Acc. 114, 283 (2005)

The basis set includes element-specific modifications.

Your calculation utilizes the basis: cc-pVTZ 
       H, B-Ne : Obtained from the ccRepo (grant-hill.group.shef.ac.uk/ccrepo) Feb. 2017
                 T. H. Dunning, Jr., J. Chem. Phys. 90, 1007 (1989)
            He : Obtained from the ccRepo (grant-hill.group.shef.ac.uk/ccrepo) Feb. 2017
                 D. E. Woon, T. H. Dunning, Jr., J. Chem. Phys. 100, 2975 (1994)
  Li-Be, Na-Mg : Obtained from the ccRepo (grant-hill.group.shef.ac.uk/ccrepo) Feb. 2017
                 B. P. Prascher, D. E. Woon, K. A. Peterson, T. H. Dunning, Jr., A. K. Wilson, Theor. Chem. Acc. 128, 69 (2011)
         Al-Ar : Obtained from the ccRepo (grant-hill.group.shef.ac.uk/ccrepo) Feb. 2017
                 D. E. Woon, T. H. Dunning, Jr., J. Chem. Phys. 98, 1358 (1993)
            Ca : Obtained from the Peterson Research Group Website (tyr0.chem.wsu.edu/~kipeters) Feb. 2017
                 J. Koput, K. A. Peterson, J. Phys. Chem. 106, 9595 (2002)
         Sc-Zn : Obtained from the ccRepo (grant-hill.group.shef.ac.uk/ccrepo) Feb. 2017
                 N. B. Balabanov, K. A. Peterson, J. Chem. Phys. 123, 064107 (2005)
                 N. B. Balabanov, K. A. Peterson, J. Chem. Phys. 125, 074110 (2006)
         Ga-Kr : Obtained from the ccRepo (grant-hill.group.shef.ac.uk/ccrepo) Feb. 2017
                 A. K. Wilson, D. E. Woon, K. A. Peterson, T. H. Dunning, Jr., J. Chem. Phys. 110, 7667 (1999)
             Y : Obtained from the ccRepo (grant-hill.group.shef.ac.uk/ccrepo) Feb. 2017
                 K. A. Peterson, D. Figgen, M. Dolg, H. Stoll, J. Chem. Phys. 126, 124101 (2007)
        Ag, Au : Obtained from the Peterson Research Group Website (tyr0.chem.wsu.edu/~kipeters) Feb. 2017
                 K. A. Peterson, C. Puzzarini, Theor. Chem. Acc. 114, 283 (2005)

----- AuxJ basis set information -----
Your calculation utilizes the auxiliary basis: aug-cc-pVTZ/JK 
  H, B-F, Al-Cl, Ga-Br : Obtained from the TURBOMOLE 7.0 basis set library

The basis set includes element-specific modifications.

Your calculation utilizes the auxiliary basis: cc-pVTZ/JK 
  H, B-F, Al-Cl, Ga-Br : Obtained from the TURBOMOLE 7.0 basis set library

----- AuxC basis set information -----
Your calculation utilizes the auxiliary basis: aug-cc-pVTZ/C 
  H-He, B-F, Al-Ar, Ga-Kr : Obtained from the EMSL Basis Set Exchange (bse.pnl.gov) Feb. 2017
                            F. Weigend, A. Kohn, C. Hattig, J. Chem. Phys. 116, 3175 (2002)
                   Be, Mg : Obtained from the TURBOMOLE 7.0 basis set library
                            C. Haettig, Phys. Chem. Chem. Phys. 7, 59 (2005)
                       Ne : Obtained from the EMSL Basis Set Exchange (bse.pnl.gov) Feb. 2017
                            C. Haettig, Phys. Chem. Chem. Phys. 7, 59 (2005)
                            F. Weigend, A. Kohn, C. Hattig, J. Chem. Phys. 116, 3175 (2002)
                    Sc-Zn : Obtained from the EMSL Basis Set Exchange (bse.pnl.gov) Feb. 2017
                            J. G. Hill, J. A. Platts, J. Chem. Phys. 128, 044104 (2008)

The basis set includes element-specific modifications.

Your calculation utilizes the auxiliary basis: cc-pVTZ/C 
  Obtained from the EMSL Basis Set Exchange (bse.pnl.gov) Feb. 2017
  H-He, B-F, Al-Ar, Ga-Kr : F. Weigend, A. Kohn, C. Hattig, J. Chem. Phys. 116, 3175 (2002)
             Li-Be, Na-Mg : C. Haettig, Phys. Chem. Chem. Phys. 7, 59 (2005)
                       Ne : C. Haettig, Phys. Chem. Chem. Phys. 7, 59 (2005)
                            F. Weigend, A. Kohn, C. Hattig, J. Chem. Phys. 116, 3175 (2002)
                    Sc-Zn : J. G. Hill, J. A. Platts, J. Chem. Phys. 128, 044104 (2008)

================================================================================
                                        WARNINGS
                       Please study these warnings very carefully!
================================================================================


WARNING: Geometry Optimization
  ===> : Switching off AutoStart
         For restart on a previous wavefunction, please use MOREAD

INFO   : the flag for use of the SHARK integral package has been found!



***************************************
The coordinates will be read from file: 
***************************************


Your calculation utilizes the SMD solvation module
Please cite in your paper:
A.V. Marenich, C.J. Cramer, D.G. Truhlar J. Phys. Chem. B, 113, (2009), 6378 

XCFun DFT library Copyright 2009-2010 Ulf Ekstrom and contributors.
See http://admol.org/xcfun for more information.
This is free software; see the source code for copying conditions.
There is ABSOLUTELY NO WARRANTY; not even for MERCHANTABILITY or FITNESS FOR A PARTICULAR PURPOSE.
For details see the documentation.
Scientific users of this library should cite U. Ekstrom, L. Visscher, R. Bast, A. J. Thorvaldsen and K. Ruud;
J.Chem.Theor.Comp. 2010, DOI: 10.1021/ct100117s
XCFun Version 0.99 

================================================================================

----- Orbital basis set information -----
Your calculation utilizes the basis: aug-cc-pVTZ 
    H, B-Ne : Obtained from the ccRepo (grant-hill.group.shef.ac.uk/ccrepo) Feb. 2017
              R. A. Kendall, T. H. Dunning, Jr., R. J. Harrison, J. Chem. Phys. 96, 6796 (1992)
         He : Obtained from the ccRepo (grant-hill.group.shef.ac.uk/ccrepo) Feb. 2017
              D. E. Woon, T. H. Dunning, Jr., J. Chem. Phys. 100, 2975 (1994)
  Li-Be, Na : Obtained from the ccRepo (grant-hill.group.shef.ac.uk/ccrepo) Feb. 2017
              B. P. Prascher, D. E. Woon, K. A. Peterson, T. H. Dunning, Jr., A. K. Wilson, Theor. Chem. Acc. 128, 69 (2011)
         Mg : Obtained from the Peterson Research Group Website (tyr0.chem.wsu.edu/~kipeters) Feb. 2017
              B. P. Prascher, D. E. Woon, K. A. Peterson, T. H. Dunning, Jr., A. K. Wilson, Theor. Chem. Acc. 128, 69 (2011)
      Al-Ar : Obtained from the ccRepo (grant-hill.group.shef.ac.uk/ccrepo) Feb. 2017
              D. E. Woon, T. H. Dunning, Jr., J. Chem. Phys. 98, 1358 (1993)
      Sc-Zn : Obtained from the ccRepo (grant-hill.group.shef.ac.uk/ccrepo) Feb. 2017
              N. B. Balabanov, K. A. Peterson, J. Chem. Phys. 123, 064107 (2005)
              N. B. Balabanov, K. A. Peterson, J. Chem. Phys. 125, 074110 (2006)
      Ga-Kr : Obtained from the ccRepo (grant-hill.group.shef.ac.uk/ccrepo) Feb. 2017
              A. K. Wilson, D. E. Woon, K. A. Peterson, T. H. Dunning, Jr., J. Chem. Phys. 110, 7667 (1999)
     Ag, Au : Obtained from the Peterson Research Group Website (tyr0.chem.wsu.edu/~kipeters) Feb. 2017
              K. A. Peterson, C. Puzzarini, Theor. Chem. Acc. 114, 283 (2005)

The basis set includes element-specific modifications.

Your calculation utilizes the basis: cc-pVTZ 
       H, B-Ne : Obtained from the ccRepo (grant-hill.group.shef.ac.uk/ccrepo) Feb. 2017
                 T. H. Dunning, Jr., J. Chem. Phys. 90, 1007 (1989)
            He : Obtained from the ccRepo (grant-hill.group.shef.ac.uk/ccrepo) Feb. 2017
                 D. E. Woon, T. H. Dunning, Jr., J. Chem. Phys. 100, 2975 (1994)
  Li-Be, Na-Mg : Obtained from the ccRepo (grant-hill.group.shef.ac.uk/ccrepo) Feb. 2017
                 B. P. Prascher, D. E. Woon, K. A. Peterson, T. H. Dunning, Jr., A. K. Wilson, Theor. Chem. Acc. 128, 69 (2011)
         Al-Ar : Obtained from the ccRepo (grant-hill.group.shef.ac.uk/ccrepo) Feb. 2017
                 D. E. Woon, T. H. Dunning, Jr., J. Chem. Phys. 98, 1358 (1993)
            Ca : Obtained from the Peterson Research Group Website (tyr0.chem.wsu.edu/~kipeters) Feb. 2017
                 J. Koput, K. A. Peterson, J. Phys. Chem. 106, 9595 (2002)
         Sc-Zn : Obtained from the ccRepo (grant-hill.group.shef.ac.uk/ccrepo) Feb. 2017
                 N. B. Balabanov, K. A. Peterson, J. Chem. Phys. 123, 064107 (2005)
                 N. B. Balabanov, K. A. Peterson, J. Chem. Phys. 125, 074110 (2006)
         Ga-Kr : Obtained from the ccRepo (grant-hill.group.shef.ac.uk/ccrepo) Feb. 2017
                 A. K. Wilson, D. E. Woon, K. A. Peterson, T. H. Dunning, Jr., J. Chem. Phys. 110, 7667 (1999)
             Y : Obtained from the ccRepo (grant-hill.group.shef.ac.uk/ccrepo) Feb. 2017
                 K. A. Peterson, D. Figgen, M. Dolg, H. Stoll, J. Chem. Phys. 126, 124101 (2007)
        Ag, Au : Obtained from the Peterson Research Group Website (tyr0.chem.wsu.edu/~kipeters) Feb. 2017
                 K. A. Peterson, C. Puzzarini, Theor. Chem. Acc. 114, 283 (2005)

----- AuxJ basis set information -----
Your calculation utilizes the auxiliary basis: aug-cc-pVTZ/JK 
  H, B-F, Al-Cl, Ga-Br : Obtained from the TURBOMOLE 7.0 basis set library

The basis set includes element-specific modifications.

Your calculation utilizes the auxiliary basis: cc-pVTZ/JK 
  H, B-F, Al-Cl, Ga-Br : Obtained from the TURBOMOLE 7.0 basis set library

----- AuxC basis set information -----
Your calculation utilizes the auxiliary basis: aug-cc-pVTZ/C 
  H-He, B-F, Al-Ar, Ga-Kr : Obtained from the EMSL Basis Set Exchange (bse.pnl.gov) Feb. 2017
                            F. Weigend, A. Kohn, C. Hattig, J. Chem. Phys. 116, 3175 (2002)
                   Be, Mg : Obtained from the TURBOMOLE 7.0 basis set library
                            C. Haettig, Phys. Chem. Chem. Phys. 7, 59 (2005)
                       Ne : Obtained from the EMSL Basis Set Exchange (bse.pnl.gov) Feb. 2017
                            C. Haettig, Phys. Chem. Chem. Phys. 7, 59 (2005)
                            F. Weigend, A. Kohn, C. Hattig, J. Chem. Phys. 116, 3175 (2002)
                    Sc-Zn : Obtained from the EMSL Basis Set Exchange (bse.pnl.gov) Feb. 2017
                            J. G. Hill, J. A. Platts, J. Chem. Phys. 128, 044104 (2008)

The basis set includes element-specific modifications.

Your calculation utilizes the auxiliary basis: cc-pVTZ/C 
  Obtained from the EMSL Basis Set Exchange (bse.pnl.gov) Feb. 2017
  H-He, B-F, Al-Ar, Ga-Kr : F. Weigend, A. Kohn, C. Hattig, J. Chem. Phys. 116, 3175 (2002)
             Li-Be, Na-Mg : C. Haettig, Phys. Chem. Chem. Phys. 7, 59 (2005)
                       Ne : C. Haettig, Phys. Chem. Chem. Phys. 7, 59 (2005)
                            F. Weigend, A. Kohn, C. Hattig, J. Chem. Phys. 116, 3175 (2002)
                    Sc-Zn : J. G. Hill, J. A. Platts, J. Chem. Phys. 128, 044104 (2008)

================================================================================
                                        WARNINGS
                       Please study these warnings very carefully!
================================================================================

INFO   : Checking CIS options ...

INFO   : the flag for use of the SHARK integral package has been found!

================================================================================
                                       INPUT FILE
================================================================================
NAME = m062x-train-14.inp
|  1> ! m062x defgrid3 aug-cc-PVTZ RIJCOSX Opt
|  2> %maxcore 4000
|  3> %basis
|  4>  AuxJ "aug-cc-PVTZ/JK"
|  5>  AuxC "aug-cc-PVTZ/C"
|  6>  newGTO H "cc-PVTZ" end
|  7>  newAuxJGTO H "cc-PVTZ/JK" end
|  8>  newAuxCGTO H "cc-PVTZ/C" end
|  9> end
| 10> %cpcm
| 11>  SMD true
| 12>  SMDsolvent "n,n-dimethylformamide"
| 13> end
| 14> %pal nprocs 4 end
| 15> * xyz 0 1
| 16> C         -2.82150       -2.31600       -0.52420
| 17> N         -2.34630       -0.95930       -0.29970
| 18> C         -3.31610        0.05570       -0.21380
| 19> C         -4.67480       -0.26280       -0.30710
| 20> C         -5.63820        0.72560       -0.22610
| 21> C         -5.28100        2.05040       -0.05140
| 22> C         -3.93830        2.37360        0.04160
| 23> C         -2.96630        1.39530       -0.03870
| 24> C         -1.01900       -0.81700       -0.19380
| 25> C          0.02650       -1.83130       -0.27030
| 26> O          0.04390       -3.04580       -0.44680
| 27> C          1.04280       -0.80810       -0.05160
| 28> N          2.37350       -0.93840        0.02220
| 29> C          2.88680       -2.29040       -0.13710
| 30> C          3.31410        0.08570        0.23360
| 31> C          2.92730        1.41300        0.42350
| 32> C          3.87120        2.40040        0.62980
| 33> C          5.22180        2.09810        0.65450
| 34> C          5.61550        0.78540        0.46800
| 35> C          4.68050       -0.21160        0.26010
| 36> C         -0.00270        0.21620        0.02390
| 37> O         -0.01980        1.42500        0.19510
| 38> H         -3.45850       -2.63510        0.30220
| 39> H         -3.38190       -2.36850       -1.45870
| 40> H         -1.97410       -2.99420       -0.58860
| 41> H         -5.00960       -1.27710       -0.44140
| 42> H         -6.67990        0.44990       -0.30110
| 43> H         -6.03770        2.81740        0.01150
| 44> H         -3.63630        3.40100        0.17840
| 45> H         -1.93440        1.68880        0.03970
| 46> H          2.05930       -2.98100       -0.28080
| 47> H          3.54010       -2.34620       -1.00910
| 48> H          3.44030       -2.59040        0.75380
| 49> H          1.88820        1.69060        0.41040
| 50> H          3.54070        3.41810        0.77290
| 51> H          5.95640        2.87210        0.81620
| 52> H          6.66400        0.52620        0.48300
| 53> H          5.04340       -1.21540        0.11950
| 54> *
| 55> 
| 56> 
| 57> $new_job
| 58> ! m062x defgrid3 aug-cc-PVTZ RIJCOSX SP
| 59> %maxcore 4000
| 60> %basis
| 61>  AuxJ "aug-cc-PVTZ/JK"
| 62>  AuxC "aug-cc-PVTZ/C"
| 63>  newGTO H "cc-PVTZ" end
| 64>  newAuxJGTO H "cc-PVTZ/JK" end
| 65>  newAuxCGTO H "cc-PVTZ/C" end
| 66> end
| 67> %cpcm
| 68>  SMD true
| 69>  SMDsolvent "n,n-dimethylformamide"
| 70> end
| 71> %pal nprocs 4 end
| 72> %tddft
| 73>  nroots 10
| 74>  maxdim 7
| 75> end
| 76> * xyzfile 0 1
| 77> 
| 78>                          ****END OF INPUT****
================================================================================


                 $$$$$$$$$$$$$$$$$$$$$$$$$$$$$$$$$$$$$$$$$$$$$$ 
                 $ THERE ARE  2 JOBS TO BE PROCESSED THIS RUN $
                 $$$$$$$$$$$$$$$$$$$$$$$$$$$$$$$$$$$$$$$$$$$$$$ 




                 $$$$$$$$$$$$$$$$  JOB NUMBER  1 $$$$$$$$$$$$$$


                       *****************************
                       * Geometry Optimization Run *
                       *****************************

Geometry optimization settings:
Update method            Update   .... BFGS
Choice of coordinates    CoordSys .... Z-matrix Internals
Initial Hessian          InHess   .... Almoef's Model

Convergence Tolerances:
Energy Change            TolE     ....  5.0000e-06 Eh
Max. Gradient            TolMAXG  ....  3.0000e-04 Eh/bohr
RMS Gradient             TolRMSG  ....  1.0000e-04 Eh/bohr
Max. Displacement        TolMAXD  ....  4.0000e-03 bohr
RMS Displacement         TolRMSD  ....  2.0000e-03 bohr
Strict Convergence                ....  False
------------------------------------------------------------------------------
                        ORCA OPTIMIZATION COORDINATE SETUP
------------------------------------------------------------------------------

The optimization will be done in new redundant internal coordinates
Making redundant internal coordinates   ...  (new redundants) done
Evaluating the initial hessian          ...  (Almloef) done
Evaluating the coordinates              ...  done
Calculating the B-matrix                .... done
Calculating the G-matrix                .... done
Diagonalizing the G-matrix              .... done
Small eigenvalue found = 1.551e-03
Small eigenvalue found = 8.353e-03
Small eigenvalue found = 1.427e-02
Small eigenvalue found = 1.835e-02
Small eigenvalue found = 2.085e-02
The first mode is                       ....   90
The number of degrees of freedom        ....  108

    -----------------------------------------------------------------
                    Redundant Internal Coordinates


    -----------------------------------------------------------------
         Definition                    Initial Value    Approx d2E/dq
    -----------------------------------------------------------------
      1. B(N   1,C   0)                  1.4549         0.440827   
      2. B(C   2,N   1)                  1.4065         0.526772   
      3. B(C   3,C   2)                  1.3986         0.605262   
      4. B(C   4,C   3)                  1.3826         0.641970   
      5. B(C   5,C   4)                  1.3832         0.640631   
      6. B(C   6,C   5)                  1.3842         0.638302   
      7. B(C   7,C   2)                  1.3955         0.612196   
      8. B(C   7,C   6)                  1.3814         0.644819   
      9. B(C   8,N   1)                  1.3391         0.674657   
     10. B(C   9,C   8)                  1.4587         0.485484   
     11. B(O  10,C   9)                  1.2274         1.017005   
     12. B(C  11,C   9)                  1.4586         0.485541   
     13. B(N  12,C  11)                  1.3391         0.674659   
     14. B(C  13,N  12)                  1.4549         0.440878   
     15. B(C  14,N  12)                  1.4065         0.526714   
     16. B(C  15,C  14)                  1.3955         0.612314   
     17. B(C  16,C  15)                  1.3815         0.644680   
     18. B(C  17,C  16)                  1.3842         0.638162   
     19. B(C  18,C  17)                  1.3831         0.640838   
     20. B(C  19,C  18)                  1.3826         0.642122   
     21. B(C  19,C  14)                  1.3986         0.605321   
     22. B(C  20,C  11)                  1.4656         0.473299   
     23. B(C  20,C   8)                  1.4655         0.473418   
     24. B(O  21,C  20)                  1.2210         1.041193   
     25. B(H  22,C   0)                  1.0911         0.358629   
     26. B(H  23,C   0)                  1.0909         0.358892   
     27. B(H  24,C   0)                  1.0873         0.363709   
     28. B(H  25,C   3)                  1.0765         0.378358   
     29. B(H  26,C   4)                  1.0802         0.373337   
     30. B(H  27,C   5)                  1.0793         0.374567   
     31. B(H  28,C   6)                  1.0796         0.374167   
     32. B(H  29,C   7)                  1.0757         0.379538   
     33. B(H  30,C  13)                  1.0874         0.363620   
     34. B(H  31,C  13)                  1.0910         0.358769   
     35. B(H  32,C  13)                  1.0909         0.358910   
     36. B(H  33,C  15)                  1.0756         0.379632   
     37. B(H  34,C  16)                  1.0795         0.374197   
     38. B(H  35,C  17)                  1.0793         0.374555   
     39. B(H  36,C  18)                  1.0802         0.373345   
     40. B(H  37,C  19)                  1.0766         0.378263   
     41. A(N   1,C   0,H  23)          110.1716         0.331108   
     42. A(H  22,C   0,H  23)          109.5617         0.290499   
     43. A(N   1,C   0,H  22)          110.2745         0.331068   
     44. A(H  23,C   0,H  24)          108.6391         0.291142   
     45. A(N   1,C   0,H  24)          109.6471         0.331840   
     46. A(H  22,C   0,H  24)          108.5084         0.291108   
     47. A(C   0,N   1,C   8)          115.7870         0.409261   
     48. A(C   2,N   1,C   8)          127.0090         0.422436   
     49. A(C   0,N   1,C   2)          117.2039         0.391818   
     50. A(C   3,C   2,C   7)          118.0639         0.431210   
     51. A(N   1,C   2,C   7)          121.8414         0.417890   
     52. A(N   1,C   2,C   3)          120.0945         0.417043   
     53. A(C   4,C   3,H  25)          117.6555         0.357991   
     54. A(C   2,C   3,C   4)          120.6767         0.434908   
     55. A(C   2,C   3,H  25)          121.6677         0.354430   
     56. A(C   3,C   4,H  26)          119.0416         0.357179   
     57. A(C   5,C   4,H  26)          120.1509         0.357053   
     58. A(C   3,C   4,C   5)          120.8075         0.439383   
     59. A(C   4,C   5,H  27)          120.4618         0.357252   
     60. A(C   4,C   5,C   6)          118.8574         0.438929   
     61. A(C   6,C   5,H  27)          120.6808         0.357031   
     62. A(C   7,C   6,H  28)          118.9796         0.357583   
     63. A(C   5,C   6,H  28)          120.1380         0.356966   
     64. A(C   5,C   6,C   7)          120.8824         0.439445   
     65. A(C   6,C   7,H  29)          118.5235         0.358451   
     66. A(C   2,C   7,H  29)          120.7642         0.355303   
     67. A(C   2,C   7,C   6)          120.7120         0.436148   
     68. A(C   9,C   8,C  20)           90.0559         0.396147   
     69. A(N   1,C   8,C  20)          140.7168         0.417174   
     70. A(N   1,C   8,C   9)          129.2268         0.419048   
     71. A(C   8,C   9,O  10)          134.8912         0.451176   
     72. A(O  10,C   9,C  11)          134.8939         0.451186   
     73. A(C   8,C   9,C  11)           90.2149         0.397910   
     74. A(C   9,C  11,C  20)           90.0545         0.396138   
     75. A(C   9,C  11,N  12)          129.2260         0.419057   
     76. A(N  12,C  11,C  20)          140.7195         0.417155   
     77. A(C  13,N  12,C  14)          117.2027         0.391819   
     78. A(C  11,N  12,C  14)          127.0132         0.422428   
     79. A(C  11,N  12,C  13)          115.7840         0.409270   
     80. A(H  31,C  13,H  32)          109.5630         0.290519   
     81. A(N  12,C  13,H  32)          110.1903         0.331117   
     82. A(H  30,C  13,H  31)          108.5174         0.291115   
     83. A(N  12,C  13,H  31)          110.2613         0.331096   
     84. A(N  12,C  13,H  30)          109.6440         0.331833   
     85. A(H  30,C  13,H  32)          108.6263         0.291133   
     86. A(C  15,C  14,C  19)          118.0598         0.431232   
     87. A(N  12,C  14,C  19)          120.0944         0.417042   
     88. A(N  12,C  14,C  15)          121.8457         0.417896   
     89. A(C  16,C  15,H  33)          118.5165         0.358453   
     90. A(C  14,C  15,H  33)          120.7692         0.355330   
     91. A(C  14,C  15,C  16)          120.7141         0.436147   
     92. A(C  17,C  16,H  34)          120.1469         0.356958   
     93. A(C  15,C  16,H  34)          118.9742         0.357575   
     94. A(C  15,C  16,C  17)          120.8790         0.439411   
     95. A(C  18,C  17,H  35)          120.4707         0.357270   
     96. A(C  16,C  17,H  35)          120.6741         0.357016   
     97. A(C  16,C  17,C  18)          118.8553         0.438937   
     98. A(C  17,C  18,H  36)          120.1444         0.357074   
     99. A(C  17,C  18,C  19)          120.8102         0.439427   
    100. A(C  19,C  18,H  36)          119.0454         0.357195   
    101. A(C  14,C  19,C  18)          120.6815         0.434934   
    102. A(C  18,C  19,H  37)          117.6481         0.357991   
    103. A(C  14,C  19,H  37)          121.6703         0.354421   
    104. A(C  11,C  20,O  21)          135.1649         0.451019   
    105. A(C   8,C  20,O  21)          135.1606         0.451040   
    106. A(C   8,C  20,C  11)           89.6745         0.394385   
    107. D(C   2,N   1,C   0,H  24)    178.9303         0.016571   
    108. D(C   2,N   1,C   0,H  23)     59.4126         0.016571   
    109. D(C   2,N   1,C   0,H  22)    -61.6495         0.016571   
    110. D(C   8,N   1,C   0,H  23)   -120.7404         0.016571   
    111. D(C   8,N   1,C   0,H  22)    118.1975         0.016571   
    112. D(C   8,N   1,C   0,H  24)     -1.2227         0.016571   
    113. D(C   3,C   2,N   1,C   0)      1.7133         0.022024   
    114. D(C   7,C   2,N   1,C   0)   -178.1291         0.022024   
    115. D(C   3,C   2,N   1,C   8)   -178.1142         0.022024   
    116. D(C   7,C   2,N   1,C   8)      2.0435         0.022024   
    117. D(H  25,C   3,C   2,N   1)      0.2208         0.025279   
    118. D(C   4,C   3,C   2,C   7)     -0.0614         0.025279   
    119. D(C   4,C   3,C   2,N   1)   -179.9097         0.025279   
    120. D(H  25,C   3,C   2,C   7)   -179.9310         0.025279   
    121. D(C   5,C   4,C   3,C   2)      0.0113         0.028646   
    122. D(C   5,C   4,C   3,H  25)    179.8859         0.028646   
    123. D(H  26,C   4,C   3,H  25)     -0.1043         0.028646   
    124. D(H  26,C   4,C   3,C   2)   -179.9789         0.028646   
    125. D(H  27,C   5,C   4,H  26)      0.0150         0.028518   
    126. D(C   6,C   5,C   4,H  26)    179.9895         0.028518   
    127. D(C   6,C   5,C   4,C   3)     -0.0005         0.028518   
    128. D(H  27,C   5,C   4,C   3)   -179.9750         0.028518   
    129. D(H  28,C   6,C   5,H  27)     -0.0064         0.028298   
    130. D(H  28,C   6,C   5,C   4)   -179.9808         0.028298   
    131. D(C   7,C   6,C   5,H  27)   -179.9834         0.028298   
    132. D(C   7,C   6,C   5,C   4)      0.0421         0.028298   
    133. D(H  29,C   7,C   2,C   3)    179.9175         0.025895   
    134. D(H  29,C   7,C   2,N   1)     -0.2370         0.025895   
    135. D(C   6,C   7,C   2,C   3)      0.1028         0.025895   
    136. D(C   2,C   7,C   6,C   5)     -0.0950         0.028918   
    137. D(C   6,C   7,C   2,N   1)    179.9482         0.025895   
    138. D(H  29,C   7,C   6,H  28)      0.1089         0.028918   
    139. D(H  29,C   7,C   6,C   5)   -179.9138         0.028918   
    140. D(C   2,C   7,C   6,H  28)    179.9277         0.028918   
    141. D(C  20,C   8,N   1,C   2)      0.1068         0.037397   
    142. D(C  20,C   8,N   1,C   0)   -179.7228         0.037397   
    143. D(C   9,C   8,N   1,C   2)    179.7776         0.037397   
    144. D(C   9,C   8,N   1,C   0)     -0.0520         0.037397   
    145. D(C  11,C   9,C   8,C  20)      0.0949         0.016048   
    146. D(C  11,C   9,C   8,N   1)   -179.6966         0.016048   
    147. D(O  10,C   9,C   8,C  20)   -179.8701         0.016048   
    148. D(O  10,C   9,C   8,N   1)      0.3384         0.016048   
    149. D(C  20,C  11,C   9,O  10)    179.8701         0.016051   
    150. D(C  20,C  11,C   9,C   8)     -0.0949         0.016051   
    151. D(N  12,C  11,C   9,O  10)     -0.1368         0.016051   
    152. D(N  12,C  11,C   9,C   8)    179.8982         0.016051   
    153. D(C  14,N  12,C  11,C  20)     -0.1197         0.037397   
    154. D(C  14,N  12,C  11,C   9)    179.8912         0.037397   
    155. D(C  13,N  12,C  11,C  20)    179.9695         0.037397   
    156. D(C  13,N  12,C  11,C   9)     -0.0196         0.037397   
    157. D(H  32,C  13,N  12,C  14)     59.8230         0.016575   
    158. D(H  32,C  13,N  12,C  11)   -120.2571         0.016575   
    159. D(H  31,C  13,N  12,C  14)    -61.2442         0.016575   
    160. D(H  31,C  13,N  12,C  11)    118.6757         0.016575   
    161. D(H  30,C  13,N  12,C  14)    179.3345         0.016575   
    162. D(H  30,C  13,N  12,C  11)     -0.7456         0.016575   
    163. D(C  19,C  14,N  12,C  13)      1.1235         0.022019   
    164. D(C  19,C  14,N  12,C  11)   -178.7862         0.022019   
    165. D(C  15,C  14,N  12,C  13)   -178.7819         0.022019   
    166. D(C  15,C  14,N  12,C  11)      1.3083         0.022019   
    167. D(H  33,C  15,C  14,N  12)     -0.1616         0.025906   
    168. D(C  16,C  15,C  14,C  19)      0.0671         0.025906   
    169. D(C  16,C  15,C  14,N  12)    179.9744         0.025906   
    170. D(H  33,C  15,C  14,C  19)    179.9311         0.025906   
    171. D(H  34,C  16,C  15,H  33)      0.0903         0.028905   
    172. D(H  34,C  16,C  15,C  14)    179.9573         0.028905   
    173. D(C  17,C  16,C  15,H  33)   -179.9284         0.028905   
    174. D(C  17,C  16,C  15,C  14)     -0.0614         0.028905   
    175. D(H  35,C  17,C  16,H  34)     -0.0025         0.028284   
    176. D(H  35,C  17,C  16,C  15)   -179.9835         0.028284   
    177. D(C  18,C  17,C  16,H  34)   -179.9921         0.028284   
    178. D(C  18,C  17,C  16,C  15)      0.0269         0.028284   
    179. D(H  36,C  18,C  17,H  35)     -0.0076         0.028538   
    180. D(H  36,C  18,C  17,C  16)    179.9820         0.028538   
    181. D(C  19,C  18,C  17,H  35)   -179.9898         0.028538   
    182. D(C  19,C  18,C  17,C  16)     -0.0002         0.028538   
    183. D(H  37,C  19,C  18,H  36)     -0.0599         0.028660   
    184. D(H  37,C  19,C  18,C  17)    179.9226         0.028660   
    185. D(C  14,C  19,C  18,H  36)   -179.9747         0.028660   
    186. D(C  14,C  19,C  18,C  17)      0.0078         0.028660   
    187. D(H  37,C  19,C  14,C  15)   -179.9519         0.025284   
    188. D(H  37,C  19,C  14,N  12)      0.1391         0.025284   
    189. D(C  18,C  19,C  14,C  15)     -0.0406         0.025284   
    190. D(C  18,C  19,C  14,N  12)   -179.9496         0.025284   
    191. D(O  21,C  20,C  11,N  12)      0.1727         0.015253   
    192. D(O  21,C  20,C  11,C   9)   -179.8358         0.015253   
    193. D(C   8,C  20,C  11,N  12)   -179.8971         0.015253   
    194. D(C   8,C  20,C  11,C   9)      0.0945         0.015253   
    195. D(O  21,C  20,C   8,C   9)    179.8358         0.015260   
    196. D(O  21,C  20,C   8,N   1)     -0.4193         0.015260   
    197. D(C  11,C  20,C   8,C   9)     -0.0944         0.015260   
    198. D(C  11,C  20,C   8,N   1)    179.6505         0.015260   
    -----------------------------------------------------------------

Number of atoms                         .... 38
Number of degrees of freedom            .... 198

         *************************************************************
         *                GEOMETRY OPTIMIZATION CYCLE   1            *
         *************************************************************
---------------------------------
CARTESIAN COORDINATES (ANGSTROEM)
---------------------------------
  C     -2.821500   -2.316000   -0.524200
  N     -2.346300   -0.959300   -0.299700
  C     -3.316100    0.055700   -0.213800
  C     -4.674800   -0.262800   -0.307100
  C     -5.638200    0.725600   -0.226100
  C     -5.281000    2.050400   -0.051400
  C     -3.938300    2.373600    0.041600
  C     -2.966300    1.395300   -0.038700
  C     -1.019000   -0.817000   -0.193800
  C      0.026500   -1.831300   -0.270300
  O      0.043900   -3.045800   -0.446800
  C      1.042800   -0.808100   -0.051600
  N      2.373500   -0.938400    0.022200
  C      2.886800   -2.290400   -0.137100
  C      3.314100    0.085700    0.233600
  C      2.927300    1.413000    0.423500
  C      3.871200    2.400400    0.629800
  C      5.221800    2.098100    0.654500
  C      5.615500    0.785400    0.468000
  C      4.680500   -0.211600    0.260100
  C     -0.002700    0.216200    0.023900
  O     -0.019800    1.425000    0.195100
  H     -3.458500   -2.635100    0.302200
  H     -3.381900   -2.368500   -1.458700
  H     -1.974100   -2.994200   -0.588600
  H     -5.009600   -1.277100   -0.441400
  H     -6.679900    0.449900   -0.301100
  H     -6.037700    2.817400    0.011500
  H     -3.636300    3.401000    0.178400
  H     -1.934400    1.688800    0.039700
  H      2.059300   -2.981000   -0.280800
  H      3.540100   -2.346200   -1.009100
  H      3.440300   -2.590400    0.753800
  H      1.888200    1.690600    0.410400
  H      3.540700    3.418100    0.772900
  H      5.956400    2.872100    0.816200
  H      6.664000    0.526200    0.483000
  H      5.043400   -1.215400    0.119500

----------------------------
CARTESIAN COORDINATES (A.U.)
----------------------------
  NO LB      ZA    FRAG     MASS         X           Y           Z
   0 C     6.0000    0    12.011   -5.331862   -4.376606   -0.990594
   1 N     7.0000    0    14.007   -4.433864   -1.812814   -0.566351
   2 C     6.0000    0    12.011   -6.266521    0.105258   -0.404023
   3 C     6.0000    0    12.011   -8.834092   -0.496620   -0.580335
   4 C     6.0000    0    12.011  -10.654654    1.371185   -0.427267
   5 C     6.0000    0    12.011   -9.979644    3.874694   -0.097132
   6 C     6.0000    0    12.011   -7.442308    4.485454    0.078613
   7 C     6.0000    0    12.011   -5.605495    2.636735   -0.073132
   8 C     6.0000    0    12.011   -1.925631   -1.543906   -0.366229
   9 C     6.0000    0    12.011    0.050078   -3.460655   -0.510793
  10 O     8.0000    0    15.999    0.082959   -5.755728   -0.844330
  11 C     6.0000    0    12.011    1.970606   -1.527088   -0.097510
  12 N     7.0000    0    14.007    4.485265   -1.773319    0.041952
  13 C     6.0000    0    12.011    5.455261   -4.328229   -0.259081
  14 C     6.0000    0    12.011    6.262741    0.161950    0.441440
  15 C     6.0000    0    12.011    5.531795    2.670183    0.800299
  16 C     6.0000    0    12.011    7.315508    4.536099    1.190150
  17 C     6.0000    0    12.011    9.867772    3.964834    1.236826
  18 C     6.0000    0    12.011   10.611757    1.484191    0.884392
  19 C     6.0000    0    12.011    8.844863   -0.399866    0.491518
  20 C     6.0000    0    12.011   -0.005102    0.408559    0.045164
  21 O     8.0000    0    15.999   -0.037417    2.692860    0.368686
  22 H     1.0000    0     1.008   -6.535618   -4.979617    0.571075
  23 H     1.0000    0     1.008   -6.390865   -4.475816   -2.756544
  24 H     1.0000    0     1.008   -3.730508   -5.658218   -1.112293
  25 H     1.0000    0     1.008   -9.466772   -2.413369   -0.834125
  26 H     1.0000    0     1.008  -12.623182    0.850188   -0.568997
  27 H     1.0000    0     1.008  -11.409599    5.324114    0.021732
  28 H     1.0000    0     1.008   -6.871611    6.426959    0.337127
  29 H     1.0000    0     1.008   -3.655486    3.191369    0.075022
  30 H     1.0000    0     1.008    3.891513   -5.633274   -0.530635
  31 H     1.0000    0     1.008    6.689819   -4.433675   -1.906923
  32 H     1.0000    0     1.008    6.501225   -4.895147    1.424476
  33 H     1.0000    0     1.008    3.568181    3.194771    0.775544
  34 H     1.0000    0     1.008    6.690953    6.459273    1.460569
  35 H     1.0000    0     1.008   11.255965    5.427482    1.542394
  36 H     1.0000    0     1.008   12.593135    0.994374    0.912738
  37 H     1.0000    0     1.008    9.530645   -2.296773    0.225822

--------------------------------
INTERNAL COORDINATES (ANGSTROEM)
--------------------------------
 C      0   0   0     0.000000000000     0.00000000     0.00000000
 N      1   0   0     1.454939923158     0.00000000     0.00000000
 C      2   1   0     1.406455065048   117.20387589     0.00000000
 C      3   2   1     1.398646785289   120.09449705     1.71329959
 C      4   3   2     1.382618935210   120.67668408   180.09032656
 C      5   4   3     1.383187250520   120.80750183     0.00000000
 C      6   5   4     1.384178648152   118.85738097     0.00000000
 C      7   6   5     1.381413399385   120.88239918     0.04212810
 C      2   1   3     1.339100216563   115.78695663   179.84700658
 C      9   2   1     1.458673023676   129.22677189   359.94795508
 O     10   9   2     1.227381464745   134.89120785     0.33839773
 C     10   9   2     1.458641018208    90.21487419   180.30335312
 N     12  10   9     1.339099331640   129.22599638   179.89819655
 C     13  12  10     1.454908031458   115.78404292     0.00000000
 C     13  12  10     1.406484671086   127.01315958   179.89119234
 C     15  13  12     1.395493296293   121.84574609     1.30834189
 C     16  15  13     1.381472279852   120.71414506   179.97440047
 C     17  16  15     1.384238324856   120.87897239   359.93857802
 C     18  17  16     1.383099139614   118.85526269     0.02687925
 C     19  18  17     1.382554306347   120.81020144     0.00000000
 C      9   2   1     1.465524213379   140.71682351   180.27718786
 O     21   9   2     1.220982919618   135.16056839   359.58074698
 H      1   2   3     1.091114462373   110.27445571   298.35052711
 H      1   2   3     1.090914597941   110.17159798    59.41264044
 H      1   2   3     1.087285316741   109.64709396   178.93028660
 H      4   3   2     1.076537049989   121.66768799     0.22081197
 H      5   4   3     1.080173310168   119.04164452   180.02111013
 H      6   5   4     1.079277675114   120.46178158   180.02498307
 H      7   6   5     1.079568895439   120.13802637   180.01918956
 H      8   7   6     1.075688811878   118.52352731   180.08619839
 H     14  13  12     1.087351966936   109.64396577   359.25444212
 H     14  13  12     1.091008033884   110.26126661   118.67569481
 H     14  13  12     1.090901031258   110.19028618   239.74293024
 H     16  15  13     1.075621764376   120.76918985   359.83838935
 H     17  16  15     1.079546733588   118.97417486   179.95729610
 H     18  17  16     1.079286824713   120.67406498   180.01645634
 H     19  18  17     1.080167528673   120.14444480   179.98203313
 H     20  19  18     1.076605410538   117.64812470   179.92255817

---------------------------
INTERNAL COORDINATES (A.U.)
---------------------------
 C      0   0   0     0.000000000000     0.00000000     0.00000000
 N      1   0   0     2.749437996078     0.00000000     0.00000000
 C      2   1   0     2.657814892608   117.20387589     0.00000000
 C      3   2   1     2.643059382286   120.09449705     1.71329959
 C      4   3   2     2.612771135120   120.67668408   180.09032656
 C      5   4   3     2.613845095414   120.80750183     0.00000000
 C      6   5   4     2.615718565429   118.85738097     0.00000000
 C      7   6   5     2.610493002567   120.88239918     0.04212810
 C      2   1   3     2.530532675179   115.78695663   179.84700658
 C      9   2   1     2.756492533686   129.22677189   359.94795508
 O     10   9   2     2.319414830219   134.89120785     0.33839773
 C     10   9   2     2.756432052118    90.21487419   180.30335312
 N     12  10   9     2.530531002918   129.22599638   179.89819655
 C     13  12  10     2.749377729497   115.78404292     0.00000000
 C     13  12  10     2.657870839911   127.01315958   179.89119234
 C     15  13  12     2.637100151718   121.84574609     1.30834189
 C     16  15  13     2.610604270524   120.71414506   179.97440047
 C     17  16  15     2.615831338056   120.87897239   359.93857802
 C     18  17  16     2.613678589932   118.85526269     0.02687925
 C     19  18  17     2.612649004270   120.81020144     0.00000000
 C      9   2   1     2.769439405917   140.71682351   180.27718786
 O     21   9   2     2.307323332274   135.16056839   359.58074698
 H      1   2   3     2.061907514646   110.27445571   298.35052711
 H      1   2   3     2.061529825605   110.17159798    59.41264044
 H      1   2   3     2.054671478074   109.64709396   178.93028660
 H      4   3   2     2.034360197500   121.66768799     0.22081197
 H      5   4   3     2.041231733389   119.04164452   180.02111013
 H      6   5   4     2.039539228421   120.46178158   180.02498307
 H      7   6   5     2.040089555080   120.13802637   180.01918956
 H      8   7   6     2.032757259773   118.52352731   180.08619839
 H     14  13  12     2.054797428690   109.64396577   359.25444212
 H     14  13  12     2.061706393949   110.26126661   118.67569481
 H     14  13  12     2.061504188290   110.19028618   239.74293024
 H     16  15  13     2.032630558356   120.76918985   359.83838935
 H     17  16  15     2.040047675250   118.97417486   179.95729610
 H     18  17  16     2.039556518658   120.67406498   180.01645634
 H     19  18  17     2.041220807947   120.14444480   179.98203313
 H     20  19  18     2.034489380215   117.64812470   179.92255817

---------------------
BASIS SET INFORMATION
---------------------
There are 4 groups of distinct atoms

 Group   1 Type C   : 19s6p3d2f contracted to 5s4p3d2f pattern {88111/3111/111/11}
 Group   2 Type N   : 19s6p3d2f contracted to 5s4p3d2f pattern {88111/3111/111/11}
 Group   3 Type O   : 19s6p3d2f contracted to 5s4p3d2f pattern {88111/3111/111/11}
 Group   4 Type H   : 5s2p1d contracted to 3s2p1d pattern {311/11/1}

Atom   0C    basis set group =>   1
Atom   1N    basis set group =>   2
Atom   2C    basis set group =>   1
Atom   3C    basis set group =>   1
Atom   4C    basis set group =>   1
Atom   5C    basis set group =>   1
Atom   6C    basis set group =>   1
Atom   7C    basis set group =>   1
Atom   8C    basis set group =>   1
Atom   9C    basis set group =>   1
Atom  10O    basis set group =>   3
Atom  11C    basis set group =>   1
Atom  12N    basis set group =>   2
Atom  13C    basis set group =>   1
Atom  14C    basis set group =>   1
Atom  15C    basis set group =>   1
Atom  16C    basis set group =>   1
Atom  17C    basis set group =>   1
Atom  18C    basis set group =>   1
Atom  19C    basis set group =>   1
Atom  20C    basis set group =>   1
Atom  21O    basis set group =>   3
Atom  22H    basis set group =>   4
Atom  23H    basis set group =>   4
Atom  24H    basis set group =>   4
Atom  25H    basis set group =>   4
Atom  26H    basis set group =>   4
Atom  27H    basis set group =>   4
Atom  28H    basis set group =>   4
Atom  29H    basis set group =>   4
Atom  30H    basis set group =>   4
Atom  31H    basis set group =>   4
Atom  32H    basis set group =>   4
Atom  33H    basis set group =>   4
Atom  34H    basis set group =>   4
Atom  35H    basis set group =>   4
Atom  36H    basis set group =>   4
Atom  37H    basis set group =>   4
---------------------------------
AUXILIARY/J BASIS SET INFORMATION
---------------------------------
There are 4 groups of distinct atoms

 Group   1 Type C   : 10s7p5d2f1g contracted to 10s7p5d2f1g pattern {1111111111/1111111/11111/11/1}
 Group   2 Type N   : 10s7p5d2f1g contracted to 10s7p5d2f1g pattern {1111111111/1111111/11111/11/1}
 Group   3 Type O   : 10s7p5d2f1g contracted to 10s7p5d2f1g pattern {1111111111/1111111/11111/11/1}
 Group   4 Type H   : 4s3p2d1f contracted to 4s3p2d1f pattern {1111/111/11/1}

Atom   0C    basis set group =>   1
Atom   1N    basis set group =>   2
Atom   2C    basis set group =>   1
Atom   3C    basis set group =>   1
Atom   4C    basis set group =>   1
Atom   5C    basis set group =>   1
Atom   6C    basis set group =>   1
Atom   7C    basis set group =>   1
Atom   8C    basis set group =>   1
Atom   9C    basis set group =>   1
Atom  10O    basis set group =>   3
Atom  11C    basis set group =>   1
Atom  12N    basis set group =>   2
Atom  13C    basis set group =>   1
Atom  14C    basis set group =>   1
Atom  15C    basis set group =>   1
Atom  16C    basis set group =>   1
Atom  17C    basis set group =>   1
Atom  18C    basis set group =>   1
Atom  19C    basis set group =>   1
Atom  20C    basis set group =>   1
Atom  21O    basis set group =>   3
Atom  22H    basis set group =>   4
Atom  23H    basis set group =>   4
Atom  24H    basis set group =>   4
Atom  25H    basis set group =>   4
Atom  26H    basis set group =>   4
Atom  27H    basis set group =>   4
Atom  28H    basis set group =>   4
Atom  29H    basis set group =>   4
Atom  30H    basis set group =>   4
Atom  31H    basis set group =>   4
Atom  32H    basis set group =>   4
Atom  33H    basis set group =>   4
Atom  34H    basis set group =>   4
Atom  35H    basis set group =>   4
Atom  36H    basis set group =>   4
Atom  37H    basis set group =>   4
---------------------------------
AUXILIARY/C BASIS SET INFORMATION
---------------------------------
There are 4 groups of distinct atoms

 Group   1 Type C   : 9s7p6d4f2g contracted to 9s7p6d4f2g pattern {111111111/1111111/111111/1111/11}
 Group   2 Type N   : 9s7p6d4f2g contracted to 9s7p6d4f2g pattern {111111111/1111111/111111/1111/11}
 Group   3 Type O   : 9s7p6d4f2g contracted to 9s7p6d4f2g pattern {111111111/1111111/111111/1111/11}
 Group   4 Type H   : 4s3p2d1f contracted to 4s3p2d1f pattern {1111/111/11/1}

Atom   0C    basis set group =>   1
Atom   1N    basis set group =>   2
Atom   2C    basis set group =>   1
Atom   3C    basis set group =>   1
Atom   4C    basis set group =>   1
Atom   5C    basis set group =>   1
Atom   6C    basis set group =>   1
Atom   7C    basis set group =>   1
Atom   8C    basis set group =>   1
Atom   9C    basis set group =>   1
Atom  10O    basis set group =>   3
Atom  11C    basis set group =>   1
Atom  12N    basis set group =>   2
Atom  13C    basis set group =>   1
Atom  14C    basis set group =>   1
Atom  15C    basis set group =>   1
Atom  16C    basis set group =>   1
Atom  17C    basis set group =>   1
Atom  18C    basis set group =>   1
Atom  19C    basis set group =>   1
Atom  20C    basis set group =>   1
Atom  21O    basis set group =>   3
Atom  22H    basis set group =>   4
Atom  23H    basis set group =>   4
Atom  24H    basis set group =>   4
Atom  25H    basis set group =>   4
Atom  26H    basis set group =>   4
Atom  27H    basis set group =>   4
Atom  28H    basis set group =>   4
Atom  29H    basis set group =>   4
Atom  30H    basis set group =>   4
Atom  31H    basis set group =>   4
Atom  32H    basis set group =>   4
Atom  33H    basis set group =>   4
Atom  34H    basis set group =>   4
Atom  35H    basis set group =>   4
Atom  36H    basis set group =>   4
Atom  37H    basis set group =>   4


           ************************************************************
           *        Program running with 4 parallel MPI-processes     *
           *              working on a common directory               *
           ************************************************************
------------------------------------------------------------------------------
                           ORCA GTO INTEGRAL CALCULATION
                           -- RI-GTO INTEGRALS CHOSEN --
------------------------------------------------------------------------------
------------------------------------------------------------------------------
                   ___                                                        
                  /   \      - P O W E R E D   B Y -                         
                 /     \                                                     
                 |  |  |   _    _      __       _____    __    __             
                 |  |  |  | |  | |    /  \     |  _  \  |  |  /  |          
                  \  \/   | |  | |   /    \    | | | |  |  | /  /          
                 / \  \   | |__| |  /  /\  \   | |_| |  |  |/  /          
                |  |  |   |  __  | /  /__\  \  |    /   |      \           
                |  |  |   | |  | | |   __   |  |    \   |  |\   \          
                \     /   | |  | | |  |  |  |  | |\  \  |  | \   \       
                 \___/    |_|  |_| |__|  |__|  |_| \__\ |__|  \__/        
                                                                              
                      - O R C A' S   B I G   F R I E N D -                    
                                      &                                       
                       - I N T E G R A L  F E E D E R -                       
                                                                              
 v1 FN, 2020, v2 2021                                                         
------------------------------------------------------------------------------


Reading SHARK input file m062x-train-14.SHARKINP.tmp ... ok
----------------------
SHARK INTEGRAL PACKAGE
----------------------

Number of atoms                             ...     38
Number of basis functions                   ...   1368
Number of shells                            ...    536
Maximum angular momentum                    ...      3
Integral batch strategy                     ... SHARK/LIBINT Hybrid
RI-J (if used) integral strategy            ... SPLIT-RIJ (Revised 2003 algorithm where possible)
Printlevel                                  ...      1
Contraction scheme used                     ... PARTIAL GENERAL contraction
Coulomb Range Separation                    ... NOT USED
Exchange Range Separation                   ... NOT USED
Finite Nucleus Model                        ... NOT USED
Auxiliary Coulomb fitting basis             ... AVAILABLE
   # of basis functions in Aux-J            ...   2218
   # of shells in Aux-J                     ...    710
   Maximum angular momentum in Aux-J        ...      4
Auxiliary J/K fitting basis                 ... NOT available
Auxiliary Correlation fitting basis         ... AVAILABLE
   # of basis functions in Aux-C            ...   2812
   # of shells in Aux-C                     ...    776
   Maximum angular momentum in Aux-C        ...      4
Auxiliary 'external' fitting basis          ... NOT available
Integral threshold                          ...     2.500000e-11
Primitive cut-off                           ...     2.500000e-12
Primitive pair pre-selection threshold      ...     2.500000e-12

Calculating pre-screening integrals         ... done (  0.4 sec) Dimension = 536
Calculating pre-screening integrals (ORCA)  ... done (  0.7 sec) Dimension = 404
Organizing shell pair data                  ... done (  4.9 sec)
Shell pair information
Total number of shell pairs                 ...    143916
Shell pairs after pre-screening             ...     88616
Total number of primitive shell pairs       ...    187692
Primitive shell pairs kept                  ...    103748
          la=0 lb=0:  20176 shell pairs
          la=1 lb=0:  22749 shell pairs
          la=1 lb=1:   5610 shell pairs
          la=2 lb=0:  14864 shell pairs
          la=2 lb=1:   7384 shell pairs
          la=2 lb=2:   2514 shell pairs
          la=3 lb=0:   7896 shell pairs
          la=3 lb=1:   3986 shell pairs
          la=3 lb=2:   2681 shell pairs
          la=3 lb=3:    756 shell pairs

Calculating one electron integrals          ... done (  0.3 sec)
Calculating RI/J V-Matrix + Cholesky decomp.... done (  1.6 sec)
Calculating RI/C V-Matrix + Cholesky decomp.... done (  1.6 sec)
Calculating Nuclear repulsion               ... done (  0.0 sec) ENN=   1662.923008179641 Eh

SHARK setup successfully completed in  15.3 seconds

Maximum memory used throughout the entire GTOINT-calculation: 140.9 MB


           ************************************************************
           *        Program running with 4 parallel MPI-processes     *
           *              working on a common directory               *
           ************************************************************
-------------------------------------------------------------------------------
                                 ORCA SCF
-------------------------------------------------------------------------------

------------
SCF SETTINGS
------------
Hamiltonian:
 Density Functional     Method          .... DFT(GTOs)
 Exchange Functional    Exchange        .... M062X
 Correlation Functional Correlation     .... M062X
 Gradients option       PostSCFGGA      .... off
 Hybrid DFT is turned on
   Fraction HF Exchange ScalHFX         ....  0.540000
   Scaling of DF-GGA-X  ScalDFX         ....  0.460000
   Scaling of DF-GGA-C  ScalDFC         ....  1.000000
   Scaling of DF-LDA-C  ScalLDAC        ....  1.000000
   Perturbative correction              ....  0.000000
   Density functional embedding theory  .... OFF
 RI-approximation to the Coulomb term is turned on
   Number of AuxJ basis functions       .... 2218
   RIJ-COSX (HFX calculated with COS-X)).... on


General Settings:
 Integral files         IntName         .... m062x-train-14
 Hartree-Fock type      HFTyp           .... RHF
 Total Charge           Charge          ....    0
 Multiplicity           Mult            ....    1
 Number of Electrons    NEL             ....  154
 Basis Dimension        Dim             .... 1236
 Nuclear Repulsion      ENuc            ....   1662.9230081796 Eh

Convergence Acceleration:
 DIIS                   CNVDIIS         .... on
   Start iteration      DIISMaxIt       ....    12
   Startup error        DIISStart       ....  0.200000
   # of expansion vecs  DIISMaxEq       ....     5
   Bias factor          DIISBfac        ....   1.050
   Max. coefficient     DIISMaxC        ....  10.000
 Trust-Rad. Augm. Hess. CNVTRAH         .... auto
   Auto Start mean grad. ratio tolernc. ....  1.125000
   Auto Start start iteration           ....    20
   Auto Start num. interpolation iter.  ....    10
   Max. Number of Micro iterations      ....    16
   Max. Number of Macro iterations      .... Maxiter - #DIIS iter
   Number of Davidson start vectors     ....     2
   Converg. threshold I  (grad. norm)   ....   1.000e-05
   Converg. threshold II (energy diff.) ....   1.000e-08
   Grad. Scal. Fac. for Micro threshold ....   0.100
   Minimum threshold for Micro iter.    ....   0.010
   NR start threshold (gradient norm)   ....   0.001
   Initial trust radius                 ....   0.400
   Minimum AH scaling param. (alpha)    ....   1.000
   Maximum AH scaling param. (alpha)    .... 1000.000
   Orbital update algorithm             .... Taylor
   White noise on init. David. guess    .... on
   Maximum white noise                  ....   0.010
   Quad. conv. algorithm                .... NR
 SOSCF                  CNVSOSCF        .... on
   Start iteration      SOSCFMaxIt      ....   150
   Startup grad/error   SOSCFStart      ....  0.003300
 Level Shifting         CNVShift        .... on
   Level shift para.    LevelShift      ....    0.2500
   Turn off err/grad.   ShiftErr        ....    0.0010
 Zerner damping         CNVZerner       .... off
 Static damping         CNVDamp         .... on
   Fraction old density DampFac         ....    0.7000
   Max. Damping (<1)    DampMax         ....    0.9800
   Min. Damping (>=0)   DampMin         ....    0.0000
   Turn off err/grad.   DampErr         ....    0.1000
 Fernandez-Rico         CNVRico         .... off

SCF Procedure:
 Maximum # iterations   MaxIter         ....   125
 SCF integral mode      SCFMode         .... Direct
   Integral package                     .... SHARK and LIBINT hybrid scheme
 Reset frequency        DirectResetFreq ....    20
 Integral Threshold     Thresh          ....  2.500e-11 Eh
 Primitive CutOff       TCut            ....  2.500e-12 Eh

Convergence Tolerance:
 Convergence Check Mode ConvCheckMode   .... Total+1el-Energy
 Convergence forced     ConvForced      .... 0
 Energy Change          TolE            ....  1.000e-08 Eh
 1-El. energy change                    ....  1.000e-05 Eh
 Orbital Gradient       TolG            ....  1.000e-05
 Orbital Rotation angle TolX            ....  1.000e-05
 DIIS Error             TolErr          ....  5.000e-07


Diagonalization of the overlap matrix:
Smallest eigenvalue                        ... 3.171e-07
Time for diagonalization                   ...    0.424 sec
Threshold for overlap eigenvalues          ... 1.000e-08
Number of eigenvalues below threshold      ... 0
Time for construction of square roots      ...    0.873 sec
Total time needed                          ...    1.304 sec

Time for model grid setup =    2.181 sec

------------------------------
INITIAL GUESS: MODEL POTENTIAL
------------------------------
Loading Hartree-Fock densities                     ... done
Calculating cut-offs                               ... done
Initializing the effective Hamiltonian             ... done
Setting up the integral package (SHARK)            ... done
Starting the Coulomb interaction                   ... done (   4.1 sec)
Reading the grid                                   ... done
Mapping shells                                     ... done
Starting the XC term evaluation                    ... done (   3.0 sec)
  promolecular density results
     # of electrons  =    153.988705563
     EX              =   -126.302339967
     EC              =     -5.191585745
     EX+EC           =   -131.493925712
Transforming the Hamiltonian                       ... done (   3.5 sec)
Diagonalizing the Hamiltonian                      ... done (   0.5 sec)
Back transforming the eigenvectors                 ... done (   0.1 sec)
Now organizing SCF variables                       ... done
                      ------------------
                      INITIAL GUESS DONE (  13.5 sec)
                      ------------------
-------------------
DFT GRID GENERATION
-------------------

General Integration Accuracy     IntAcc      ... 4.959
Radial Grid Type                 RadialGrid  ... OptM3 with GC (2021)
Angular Grid (max. ang.)         AngularGrid ... 6 (Lebedev-590)
Angular grid pruning method      GridPruning ... 4 (adaptive)
Weight generation scheme         WeightScheme... Becke
Basis function cutoff            BFCut       ... 1.0000e-11
Integration weight cutoff        WCut        ... 1.0000e-14
Angular grids for H and He will be reduced by one unit
Partially contracted basis set               ... off
Rotationally invariant grid construction     ... off

Total number of grid points                  ...   458835
Total number of batches                      ...     7186
Average number of points per batch           ...       63
Average number of grid points per atom       ...    12075
Time for grid setup =   13.243 sec

--------------------
COSX GRID GENERATION
--------------------

GRIDX 1
-------
General Integration Accuracy     IntAcc      ... 4.020
Radial Grid Type                 RadialGrid  ... OptM3 with GC (2021)
Angular Grid (max. ang.)         AngularGrid ... 2 (Lebedev-110)
Angular grid pruning method      GridPruning ... 4 (adaptive)
Weight generation scheme         WeightScheme... Becke
Basis function cutoff            BFCut       ... 1.0000e-11
Integration weight cutoff        WCut        ... 1.0000e-14
Angular grids for H and He will be reduced by one unit
Partially contracted basis set               ... on
Rotationally invariant grid construction     ... off

Total number of grid points                  ...    56213
Total number of batches                      ...      896
Average number of points per batch           ...       62
Average number of grid points per atom       ...     1479
UseSFitting                                  ... on

GRIDX 2
-------
General Integration Accuracy     IntAcc      ... 4.338
Radial Grid Type                 RadialGrid  ... OptM3 with GC (2021)
Angular Grid (max. ang.)         AngularGrid ... 3 (Lebedev-194)
Angular grid pruning method      GridPruning ... 4 (adaptive)
Weight generation scheme         WeightScheme... Becke
Basis function cutoff            BFCut       ... 1.0000e-11
Integration weight cutoff        WCut        ... 1.0000e-14
Angular grids for H and He will be reduced by one unit
Partially contracted basis set               ... on
Rotationally invariant grid construction     ... off

Total number of grid points                  ...   121372
Total number of batches                      ...     1915
Average number of points per batch           ...       63
Average number of grid points per atom       ...     3194
UseSFitting                                  ... on

GRIDX 3
-------
General Integration Accuracy     IntAcc      ... 4.871
Radial Grid Type                 RadialGrid  ... OptM3 with GC (2021)
Angular Grid (max. ang.)         AngularGrid ... 4 (Lebedev-302)
Angular grid pruning method      GridPruning ... 4 (adaptive)
Weight generation scheme         WeightScheme... Becke
Basis function cutoff            BFCut       ... 1.0000e-11
Integration weight cutoff        WCut        ... 1.0000e-14
Angular grids for H and He will be reduced by one unit
Partially contracted basis set               ... on
Rotationally invariant grid construction     ... off

Total number of grid points                  ...   223466
Total number of batches                      ...     3509
Average number of points per batch           ...       63
Average number of grid points per atom       ...     5881
UseSFitting                                  ... on

Time for X-Grid setup             =   23.434 sec


--------------------
CPCM SOLVATION MODEL
--------------------
CPCM parameters:
  Epsilon                                         ...      37.2190
  Refrac                                          ...       1.4305
  Rsolv                                           ...       1.3000
  Surface type                                    ... GAUSSIAN VDW
  Epsilon function type                           ...         CPCM
Solvent:                                     ... N,N-DIMETHYLFORMAMIDE
SMD-CDS solvent descriptors:
  Soln                                       ...    1.4305
  Soln25                                     ...    1.4280
  Sola                                       ...    0.0000
  Solb                                       ...    0.7400
  Solg                                       ...   49.5600
  Solc                                       ...    0.0000
  Solh                                       ...    0.0000
Radii:
 Radius for C  used is    3.4960 Bohr (=   1.8500 Ang.)
 Radius for N  used is    3.5716 Bohr (=   1.8900 Ang.)
 Radius for O  used is    4.3350 Bohr (=   2.2940 Ang.)
 Radius for H  used is    2.2677 Bohr (=   1.2000 Ang.)
Calculating surface                               ...        done! (  0.0s)
GEPOL surface points                              ...         1984
GEPOL Volume                                      ...    2200.0410
GEPOL Surface-area                                ...    1151.8095
Calculating surface distance matrix               ...        done! (  0.1s)
Performing Cholesky decomposition & store         ...        done! (  0.9s)
Overall time for CPCM initialization              ...                 1.0s
 re-compute Schwartz prescreening matrix in partically contracted basis (1) ...done (   0.978 sec)
--------------
SCF ITERATIONS
--------------
ITER       Energy         Delta-E        Max-DP      RMS-DP      [F,P]     Damp
               ***  Starting incremental Fock matrix formation  ***
  0   -954.8878144115   0.000000000000 0.39246326  0.00208442  0.3125185 0.7000
  1   -955.1146108419  -0.226796430425 0.24747816  0.00146493  0.1482826 0.7000
                               ***Turning on DIIS***
  2   -955.2225565522  -0.107945710340 0.70460575  0.00304956  0.0573872 0.0000
  3   -955.4011813547  -0.178624802500 0.23863389  0.00111998  0.0680876 0.0000
  4   -955.4280257390  -0.026844384247 0.03754423  0.00025543  0.0180875 0.0000
  5   -955.4293325314  -0.001306792413 0.03143865  0.00012121  0.0089407 0.0000
                      *** Initiating the SOSCF procedure ***
                           *** Shutting down DIIS ***
                      *** Re-Reading the Fockian *** 
                      *** Removing any level shift *** 
ITER      Energy       Delta-E        Grad      Rot      Max-DP    RMS-DP
  6   -955.42950136  -0.0001688291  0.000664  0.000664  0.037912  0.000071
               *** Restarting incremental Fock matrix formation ***
  7   -955.42952739  -0.0000260332  0.000357  0.001412  0.027800  0.000231
  8   -955.42953342  -0.0000060297  0.000133  0.000974  0.022173  0.000131
  9   -955.42953428  -0.0000008603  0.000105  0.000312  0.017086  0.000097
 10   -955.42953497  -0.0000006836  0.000018  0.000089  0.054103  0.000125
 11   -955.42953496   0.0000000068  0.000021  0.000045  0.025441  0.000064
 12   -955.42953500  -0.0000000367  0.000010  0.000023  0.023811  0.000124
 13   -955.42953498   0.0000000198  0.000006  0.000013  0.023400  0.000072
 14   -955.42953497   0.0000000106  0.000008  0.000195  0.393796  0.001243
 15   -955.42953356   0.0000014053  0.000084  0.000182  0.372146  0.001180
 16   -955.42953496  -0.0000013959  0.000003  0.000003  0.031284  0.000105
 17   -955.42953496  -0.0000000076  0.000004  0.000004  0.065526  0.000200
 18   -955.42953498  -0.0000000172  0.000005  0.000002  0.011850  0.000044
 19   -955.42953500  -0.0000000193  0.000009  0.095972 91216.257463 166.239331

 WARNING: the maximum gradient error descreased on average only by a factor   0.7
          during the last 20 iterations

                      *** Initiating the TRAH-SCF procedure ***

              ***Rediagonalizing the Fockian in SOSCF/NRSCF***

TRAH GRIDX
----------

General Integration Accuracy     IntAcc      ... 3.067
Radial Grid Type                 RadialGrid  ... OptM3 with GC (2021)
Angular Grid (max. ang.)         AngularGrid ... 2 (Lebedev-110)
Angular grid pruning method      GridPruning ... 4 (adaptive)
Weight generation scheme         WeightScheme... Becke
Basis function cutoff            BFCut       ... 1.0000e-11
Integration weight cutoff        WCut        ... 1.0000e-14
Angular grids for H and He will be reduced by one unit
Partially contracted basis set               ... on
Rotationally invariant grid construction     ... off

Total number of grid points                  ...    31495
Total number of batches                      ...      509
Average number of points per batch           ...       61
Average number of grid points per atom       ...      829


TRAH GRID
---------

General Integration Accuracy     IntAcc      ... 3.467
Radial Grid Type                 RadialGrid  ... OptM3 with GC (2021)
Angular Grid (max. ang.)         AngularGrid ... 3 (Lebedev-194)
Angular grid pruning method      GridPruning ... 4 (adaptive)
Weight generation scheme         WeightScheme... Becke
Basis function cutoff            BFCut       ... 1.0000e-11
Integration weight cutoff        WCut        ... 1.0000e-14
Angular grids for H and He will be reduced by one unit
Partially contracted basis set               ... off
Rotationally invariant grid construction     ... off

Total number of grid points                  ...    73016
Total number of batches                      ...     1159
Average number of points per batch           ...       62
Average number of grid points per atom       ...     1921

 --------------------------------------------------------------------------------------------
   Iter.        energy            ||Error||_2        Shift      TRadius  Mac/Mic        Rej.
 --------------------------------------------------------------------------------------------
    0       -954.008661435556     4.526808e+00                     0.400 (TRAH MAcro)   No
    0     dE    -8.738025e-01     4.221587e+00    -1.5617e+00      0.345 (TRAH MIcro)
    0     dE    -1.173849e+00     5.954717e-01    -4.3895e+00      0.400 (TRAH MIcro)
    0     dE    -1.179639e+00     9.363201e-02    -4.3443e+00      0.400 (TRAH MIcro)
    0     dE    -1.179915e+00     1.010745e-02    -4.3297e+00      0.400 (TRAH MIcro)
    0     dE    -1.179919e+00     2.213621e-03    -4.3291e+00      0.400 (TRAH MIcro)
    1       -955.169615109852     1.622691e+00                     0.480 (TRAH MAcro)   No
    1     dE    -1.973048e-01     1.006828e+00    -3.7464e-01      0.231 (TRAH MIcro)
    1     dE    -2.548269e-01     2.906098e-01    -4.6441e-01      0.312 (TRAH MIcro)
    1     dE    -2.597352e-01     5.933666e-02    -4.7107e-01      0.321 (TRAH MIcro)
    1     dE    -2.600495e-01     2.151045e-02    -4.7142e-01      0.321 (TRAH MIcro)
    1     dE    -2.601525e-01     7.833417e-03    -4.7148e-01      0.322 (TRAH MIcro)
    2       -955.426175553705     1.580422e-01                     0.576 (TRAH MAcro)   No
    2     dE    -2.233633e-03     1.687073e-01    -4.4637e-03      0.028 (TRAH MIcro)
    2     dE    -3.258872e-03     4.199294e-02    -6.5038e-03      0.046 (TRAH MIcro)
    2     dE    -3.337821e-03     1.220726e-02    -6.6599e-03      0.049 (TRAH MIcro)
    2     dE    -3.348020e-03     5.988768e-03    -6.6798e-03      0.049 (TRAH MIcro)
    3       -955.429532035010     7.054575e-03                     0.691 (TRAH MAcro)   No
    3     dE    -5.046762e-07     6.622790e-03    -1.0094e-06      0.000 (TRAH MIcro)
    3     dE    -2.275947e-06     2.730130e-03    -4.5519e-06      0.001 (TRAH MIcro)
    3     dE    -2.903862e-06     9.738079e-04    -5.8077e-06      0.002 (TRAH MIcro)
    3     dE    -2.955029e-06     3.930441e-04    -5.9100e-06      0.002 (TRAH MIcro)
    4       -955.429534981798     4.072533e-04                           (NR   MAcro)
    4     dE    -8.680094e-09     1.643813e-04                           (NR   MIcro)
    4     dE    -1.099840e-08     7.008643e-05                           (NR   MIcro)
    4     dE    -1.124492e-08     3.440985e-05                           (NR   MIcro)
    4     dE    -1.132226e-08     8.249819e-06                           (NR   MIcro)
    4     dE    -1.132666e-08     3.036878e-06                           (NR   MIcro)
    4     dE    -1.132726e-08     1.142749e-06                           (NR   MIcro)
    5       -955.429534994013     9.066579e-06                           (NR   MAcro)
    5     dE    -3.150970e-12     2.165713e-06                           (NR   MIcro)
    5     dE    -3.433340e-12     7.585323e-07                           (NR   MIcro)
    6       -955.429534994059     1.412907e-06                           (NR   MAcro)

               *****************************************************
[...]
Number of roots to be determined               ...     10
Maximum size of the expansion space            ...     70
Maximum number of iterations                   ...    100
Convergence tolerance for the residual         ...    1.000e-06
Convergence tolerance for the energies         ...    1.000e-06
Orthogonality tolerance                        ...    1.000e-14
Level Shift                                    ...    0.000e+00
Constructing the preconditioner                ... o.k.
Building the initial guess                     ... o.k.
Number of trial vectors determined             ...     70


                       ****Iteration    0****

   Memory handling for direct AO based CIS:
   Memory per vector needed      ...    69 MB
   Memory needed                 ...  2097 MB
   Memory available              ...  4000 MB
   Number of vectors per batch   ...    57
   Number of batches             ...     1
   Time for densities:            1.042
   Time for RI-J (Direct):       39.859
   Time for K (COSX):           417.725
   Time for XC-Integration:     356.347
   Time for LR-CPCM terms:       37.511
   Time for Sigma-Completion:    10.763
   Size of expansion space: 30
   Lowest Energy          :     0.150429268280
   Maximum Energy change  :     0.210445166092 (vector 9)
   Maximum residual norm  :     0.014570489342

                       ****Iteration    1****
   Time for densities:            0.395
   Time for RI-J (Direct):       36.339
   Time for K (COSX):           166.690
   Time for XC-Integration:     126.257
   Time for LR-CPCM terms:       15.333
   Time for Sigma-Completion:     1.513
   Size of expansion space: 40
   Lowest Energy          :     0.132200817602
   Maximum Energy change  :     0.018228450678 (vector 0)
   Maximum residual norm  :     0.000698477426

                       ****Iteration    2****
   Time for densities:            0.326
   Time for RI-J (Direct):       24.761
   Time for K (COSX):           151.906
   Time for XC-Integration:     123.708
   Time for LR-CPCM terms:       21.808
   Time for Sigma-Completion:     4.041
   Size of expansion space: 50
   Lowest Energy          :     0.131277117919
   Maximum Energy change  :     0.002545154678 (vector 9)
   Maximum residual norm  :     0.006684537368

                       ****Iteration    3****
   Time for densities:            0.332
   Time for RI-J (Direct):       34.988
   Time for K (COSX):           167.915
   Time for XC-Integration:     129.438
   Time for LR-CPCM terms:       15.571
   Time for Sigma-Completion:     2.202
   Size of expansion space: 60
   Lowest Energy          :     0.131207925162
   Maximum Energy change  :     0.004906773577 (vector 9)
   Maximum residual norm  :     0.000837036328

                       ****Iteration    4****
   Time for densities:            0.325
   Time for RI-J (Direct):       25.585
   Time for K (COSX):           160.322
   Time for XC-Integration:     127.865
   Time for LR-CPCM terms:       15.524
   Time for Sigma-Completion:     0.429
   Size of expansion space: 70
   Lowest Energy          :     0.131202757239
   Maximum Energy change  :     0.003855808318 (vector 5)
   Maximum residual norm  :     0.000955203212
   Rebuilding the expansion space

                       ****Iteration    5****
   Time for densities:            0.666
   Time for RI-J (Direct):       25.167
   Time for K (COSX):           289.557
   Time for XC-Integration:     253.519
   Time for LR-CPCM terms:       26.968
   Time for Sigma-Completion:     3.525
   Size of expansion space: 20
   Lowest Energy          :     0.131202468568
   Maximum Energy change  :     0.002534266032 (vector 3)
   Maximum residual norm  :     0.000729389504

                       ****Iteration    6****
   Time for densities:            0.328
   Time for RI-J (Direct):       21.978
   Time for K (COSX):           158.544
   Time for XC-Integration:     132.687
   Time for LR-CPCM terms:       18.994
   Time for Sigma-Completion:     1.203
   Size of expansion space: 30
   Lowest Energy          :     0.131202434871
   Maximum Energy change  :     0.002509317534 (vector 3)
   Maximum residual norm  :     0.000739537138

                       ****Iteration    7****
   Time for densities:            0.359
   Time for RI-J (Direct):       22.581
   Time for K (COSX):           154.738
   Time for XC-Integration:     135.098
   Time for LR-CPCM terms:       15.997
   Time for Sigma-Completion:     2.651
   Size of expansion space: 40
   Lowest Energy          :     0.131202430728
   Maximum Energy change  :     0.001784322394 (vector 3)
   Maximum residual norm  :     0.000420747392

                       ****Iteration    8****
   Time for densities:            0.338
   Time for RI-J (Direct):       23.175
   Time for K (COSX):           157.983
   Time for XC-Integration:     133.461
   Time for LR-CPCM terms:       16.179
   Time for Sigma-Completion:     4.207
   Size of expansion space: 50
   Lowest Energy          :     0.131202430391
   Maximum Energy change  :     0.001417290305 (vector 9)
   Maximum residual norm  :     0.000352731790

                       ****Iteration    9****
   Time for densities:            0.347
   Time for RI-J (Direct):       23.523
   Time for K (COSX):           164.988
   Time for XC-Integration:     135.260
   Time for LR-CPCM terms:       19.293
   Time for Sigma-Completion:     2.321
   Size of expansion space: 60
   Lowest Energy          :     0.131202430361
   Maximum Energy change  :     0.000527253760 (vector 8)
   Maximum residual norm  :     0.000068652950

                       ****Iteration   10****
   Time for densities:            0.339
   Time for RI-J (Direct):       28.322
   Time for K (COSX):           156.495
   Time for XC-Integration:     135.393
   Time for LR-CPCM terms:       19.346
   Time for Sigma-Completion:     3.269
   Size of expansion space: 70
   Lowest Energy          :     0.131202430358
   Maximum Energy change  :     0.000098169223 (vector 8)
   Maximum residual norm  :     0.000009633981
   Rebuilding the expansion space

                       ****Iteration   11****
   Time for densities:            0.670
   Time for RI-J (Direct):       31.984
   Time for K (COSX):           298.816
   Time for XC-Integration:     249.793
   Time for LR-CPCM terms:       33.208
   Time for Sigma-Completion:     5.138
   Size of expansion space: 20
   Lowest Energy          :     0.131202429921
   Maximum Energy change  :     0.000014700170 (vector 8)
   Maximum residual norm  :     0.000002330891

                       ****Iteration   12****
   Time for densities:            0.341
   Time for RI-J (Direct):       24.746
   Time for K (COSX):           161.230
   Time for XC-Integration:     146.859
   Time for LR-CPCM terms:       19.168
   Time for Sigma-Completion:     1.528
   Size of expansion space: 30
   Lowest Energy          :     0.131202429920
   Maximum Energy change  :     0.000004512596 (vector 8)
   Maximum residual norm  :     0.000001086921

                       ****Iteration   13****
   Time for densities:            0.305
   Time for RI-J (Direct):       26.550
   Time for K (COSX):           154.547
   Time for XC-Integration:     129.292
   Time for LR-CPCM terms:       21.669
   Time for Sigma-Completion:     0.995
   Size of expansion space: 39
   Lowest Energy          :     0.131202429920
   Maximum Energy change  :     0.000002240037 (vector 8)
   Maximum residual norm  :     0.000000438732

      *** CONVERGENCE OF RESIDUAL NORM REACHED ***

Storing the converged CI vectors               ... m062x-train-14_job2.cis1

                 *** DAVIDSON DONE ***

Total time for solving the CIS problem:  5869.864sec

------------------------------------
TD-DFT/TDA EXCITED STATES (SINGLETS)
------------------------------------

the weight of the individual excitations are printed if larger than 1.0e-02

STATE  1:  E=   0.131202 au      3.570 eV    28795.6 cm**-1 <S**2> =   0.000000
    75a ->  77a  :     0.021235 (c= -0.14572371)
    76a ->  77a  :     0.928779 (c= -0.96373205)

STATE  2:  E=   0.166095 au      4.520 eV    36453.6 cm**-1 <S**2> =   0.000000
    73a ->  77a  :     0.194963 (c=  0.44154645)
    75a ->  77a  :     0.676776 (c= -0.82266399)
    75a ->  89a  :     0.010349 (c=  0.10172913)
    75a ->  91a  :     0.015257 (c=  0.12352086)
    76a ->  77a  :     0.026618 (c=  0.16314964)

STATE  3:  E=   0.168599 au      4.588 eV    37003.3 cm**-1 <S**2> =   0.000000
    75a ->  77a  :     0.010029 (c=  0.10014561)
    76a ->  78a  :     0.805552 (c= -0.89752521)
    76a ->  80a  :     0.019281 (c=  0.13885746)
    76a ->  81a  :     0.039659 (c= -0.19914640)
    76a ->  85a  :     0.028425 (c=  0.16859809)
    76a ->  88a  :     0.016784 (c=  0.12955190)
    76a ->  91a  :     0.012147 (c=  0.11021438)
    76a -> 111a  :     0.011429 (c= -0.10690562)

STATE  4:  E=   0.172575 au      4.696 eV    37875.8 cm**-1 <S**2> =   0.000000
    73a ->  87a  :     0.139839 (c=  0.37395114)
    73a ->  90a  :     0.013913 (c= -0.11795187)
    75a ->  86a  :     0.014895 (c=  0.12204691)
    75a ->  87a  :     0.407855 (c= -0.63863550)
    75a ->  90a  :     0.039987 (c=  0.19996730)
    76a ->  86a  :     0.010313 (c=  0.10155049)
    76a ->  87a  :     0.271631 (c= -0.52118229)
    76a ->  90a  :     0.017055 (c=  0.13059668)

STATE  5:  E=   0.180619 au      4.915 eV    39641.2 cm**-1 <S**2> =   0.000000
    71a ->  84a  :     0.013718 (c=  0.11712505)
    72a ->  77a  :     0.048260 (c=  0.21968210)
    74a ->  78a  :     0.012924 (c=  0.11368350)
    74a ->  81a  :     0.038828 (c=  0.19704854)
    76a ->  79a  :     0.265461 (c= -0.51522909)
    76a ->  82a  :     0.062276 (c= -0.24955171)
    76a ->  83a  :     0.464887 (c= -0.68182602)

STATE  6:  E=   0.182294 au      4.960 eV    40008.8 cm**-1 <S**2> =   0.000000
    71a ->  77a  :     0.018418 (c= -0.13571415)
    72a ->  84a  :     0.027433 (c= -0.16562981)
    73a ->  77a  :     0.044119 (c= -0.21004505)
    74a ->  83a  :     0.043065 (c= -0.20752220)
    75a ->  77a  :     0.010412 (c= -0.10203750)
    76a ->  80a  :     0.022541 (c=  0.15013696)
    76a ->  81a  :     0.556187 (c=  0.74577962)
    76a ->  82a  :     0.031110 (c= -0.17638007)
    76a ->  85a  :     0.130587 (c=  0.36136892)
    76a ->  88a  :     0.019628 (c=  0.14010133)

STATE  7:  E=   0.188366 au      5.126 eV    41341.5 cm**-1 <S**2> =   0.000000
    76a ->  81a  :     0.031186 (c=  0.17659550)
    76a ->  82a  :     0.524291 (c=  0.72407935)
    76a ->  83a  :     0.021917 (c= -0.14804290)
    76a ->  84a  :     0.326867 (c= -0.57172260)
    76a ->  87a  :     0.011085 (c=  0.10528741)

STATE  8:  E=   0.193781 au      5.273 eV    42530.0 cm**-1 <S**2> =   0.000000
    76a ->  79a  :     0.173136 (c= -0.41609561)
    76a ->  82a  :     0.131048 (c= -0.36200557)
    76a ->  83a  :     0.235150 (c=  0.48492305)
    76a ->  84a  :     0.299508 (c= -0.54727319)
    76a ->  87a  :     0.030077 (c=  0.17342606)
    76a ->  90a  :     0.018222 (c=  0.13498730)
    76a ->  92a  :     0.030297 (c=  0.17406136)

STATE  9:  E=   0.194518 au      5.293 eV    42691.7 cm**-1 <S**2> =   0.000000
    73a ->  87a  :     0.062608 (c=  0.25021621)
    75a ->  87a  :     0.168587 (c= -0.41059381)
    75a ->  90a  :     0.014720 (c=  0.12132631)
    76a ->  84a  :     0.040632 (c=  0.20157486)
    76a ->  86a  :     0.023527 (c= -0.15338535)
    76a ->  87a  :     0.565536 (c=  0.75202120)
    76a ->  90a  :     0.010632 (c= -0.10311269)

STATE 10:  E=   0.196047 au      5.335 eV    43027.3 cm**-1 <S**2> =   0.000000
    76a ->  78a  :     0.020273 (c= -0.14238360)
    76a ->  80a  :     0.841798 (c= -0.91749574)
    76a ->  85a  :     0.011818 (c=  0.10871016)
    76a ->  88a  :     0.042887 (c=  0.20709104)
    76a ->  91a  :     0.010244 (c= -0.10121192)
    76a ->  93a  :     0.020014 (c= -0.14147223)


-----------------------------
TD-DFT/TDA-EXCITATION SPECTRA
-----------------------------

Center of mass = (  0.0007, -0.0435, -0.0027)
Calculating the Dipole integrals                  ... done
Transforming integrals                            ... done
Calculating the Linear Momentum integrals         ... done
Transforming integrals                            ... done
Calculating angular momentum integrals            ... done
Transforming integrals                            ... done

-----------------------------------------------------------------------------
         ABSORPTION SPECTRUM VIA TRANSITION ELECTRIC DIPOLE MOMENTS
-----------------------------------------------------------------------------
State   Energy    Wavelength  fosc         T2        TX        TY        TZ  
        (cm-1)      (nm)                 (au**2)    (au)      (au)      (au) 
-----------------------------------------------------------------------------
   1   28795.6    347.3   1.007484064  11.51828  -3.37884  -0.00103  -0.31888
   2   36453.6    274.3   0.135928454   1.22757   1.10737   0.01353   0.03332
   3   37003.3    270.2   0.021201839   0.18863  -0.19852   0.04991  -0.38305
   4   37875.8    264.0   0.035999563   0.31290  -0.01275   0.55391   0.07700
   5   39641.2    252.3   0.000025696   0.00021  -0.01015   0.00406   0.00968
   6   40008.8    249.9   0.019431850   0.15989  -0.34635  -0.03253   0.19718
   7   41341.5    241.9   0.090858629   0.72353  -0.01084   0.84212   0.11934
   8   42530.0    235.1   0.036762076   0.28456  -0.00779   0.52764   0.07810
   9   42691.7    234.2   0.281941125   2.17416   0.01859  -1.45989  -0.20620
  10   43027.3    232.4   0.003283911   0.02513  -0.14134   0.00877   0.07121

-----------------------------------------------------------------------------
         ABSORPTION SPECTRUM VIA TRANSITION VELOCITY DIPOLE MOMENTS
-----------------------------------------------------------------------------
State   Energy    Wavelength   fosc        P2         PX        PY        PZ  
        (cm-1)      (nm)                 (au**2)     (au)      (au)      (au) 
-----------------------------------------------------------------------------
   1   28795.6    347.3   0.422959622   0.08324   0.28619  -0.00138   0.03652
   2   36453.6    274.3   0.068273302   0.01701  -0.12991   0.00011  -0.01155
   3   37003.3    270.2   0.006630614   0.00168   0.03913  -0.00106   0.01203
   4   37875.8    264.0   0.000442983   0.00011   0.00056   0.01056   0.00167
   5   39641.2    252.3   0.000255020   0.00007   0.00049   0.00817   0.00145
   6   40008.8    249.9   0.002252560   0.00062   0.02271  -0.00158   0.00988
   7   41341.5    241.9   0.035548594   0.01004   0.00147  -0.09921  -0.01410
   8   42530.0    235.1   0.020620913   0.00599   0.00127  -0.07656  -0.01145
   9   42691.7    234.2   0.003916833   0.00114  -0.00023   0.03346   0.00481
  10   43027.3    232.4   0.003306160   0.00097   0.02897   0.00105  -0.01149

-------------------------------------------------------------------
                             CD SPECTRUM
-------------------------------------------------------------------
State  Energy     Wavelength     R         MX        MY        MZ   
       (cm-1)       (nm)     (1e40*cgs)   (au)      (au)      (au)  
-------------------------------------------------------------------
   1   28795.6    347.3    -169.36444   0.16746   0.09373  -0.64816
   2   36453.6    274.3    141.53443   0.26500  -0.02337   0.21235
   3   37003.3    270.2     21.44161  -0.00238   0.01647  -0.11535
   4   37875.8    264.0    145.57330  -0.00955   0.54675   0.07543
   5   39641.2    252.3     -0.26270   0.00493  -0.10453  -0.00854
   6   40008.8    249.9      9.99829   0.08440  -0.03127   0.25063
   7   41341.5    241.9    -17.25432   0.00240  -0.04255  -0.00620
   8   42530.0    235.1    -29.81864   0.00042  -0.11744  -0.01641
   9   42691.7    234.2    -102.26987   0.00276   0.14640   0.01574
  10   43027.3    232.4    -19.89696   0.20007   0.03048  -0.19931

-------------------------------------------------------------------
         CD SPECTRUM VIA TRANSITION VELOCITY DIPOLE MOMENTS        
-------------------------------------------------------------------
State  Energy     Wavelength     R         MX        MY        MZ   
       (cm-1)       (nm)     (1e40*cgs)   (au)      (au)      (au)  
-------------------------------------------------------------------
   1   28795.6    347.3     86.69454   0.16746   0.09373  -0.64816
   2   36453.6    274.3    -104.68712   0.26500  -0.02337   0.21235
   3   37003.3    270.2     -4.18909  -0.00238   0.01647  -0.11535
   4   37875.8    264.0     16.10582  -0.00955   0.54675   0.07543
   5   39641.2    252.3     -2.25492   0.00493  -0.10453  -0.00854
   6   40008.8    249.9     11.48794   0.08440  -0.03127   0.25063
   7   41341.5    241.9     10.79349   0.00240  -0.04255  -0.00620
   8   42530.0    235.1     22.33197   0.00042  -0.11744  -0.01641
   9   42691.7    234.2     12.05510   0.00276   0.14640   0.01574
  10   43027.3    232.4     19.52077   0.20007   0.03048  -0.19931

Total run time:     5905.586 sec

           *** ORCA-CIS/TD-DFT FINISHED WITHOUT ERROR ***

Maximum memory used throughout the entire CIS-calculation: 1924.4 MB

-----------------------
CIS/TD-DFT TOTAL ENERGY
-----------------------

    E(SCF)  =   -955.447053405 Eh
    DE(CIS) =      0.131202430 Eh (Root  1)
    ----------------------------- ---------
    E(tot)  =   -955.315850975 Eh


-------------------------   --------------------
FINAL SINGLE POINT ENERGY      -955.315850975467
-------------------------   --------------------


                            ***************************************
                            *     ORCA property calculations      *
                            ***************************************

                                    ---------------------
                                    Active property flags
                                    ---------------------
   (+) Dipole Moment


------------------------------------------------------------------------------
                       ORCA ELECTRIC PROPERTIES CALCULATION
------------------------------------------------------------------------------

Dipole Moment Calculation                       ... on
Quadrupole Moment Calculation                   ... off
Polarizability Calculation                      ... off
GBWName                                         ... m062x-train-14_job2.gbw
Electron density                                ... m062x-train-14_job2.scfp
The origin for moment calculation is the CENTER OF MASS  = ( 0.000697, -0.043453 -0.002709)

-------------
DIPOLE MOMENT
-------------
                                X             Y             Z
Electronic contribution:     -0.00310      -0.03415       0.04592
Nuclear contribution   :      0.00083      -0.22871      -0.10106
                        -----------------------------------------
Total Dipole Moment    :     -0.00228      -0.26286      -0.05514
                        -----------------------------------------
Magnitude (a.u.)       :      0.26859
Magnitude (Debye)      :      0.68269



--------------------
Rotational spectrum 
--------------------
 
Rotational constants in cm-1:     0.017552     0.005443     0.004396 
Rotational constants in MHz :   526.186113   163.162480   131.779925 

 Dipole components along the rotational axes: 
x,y,z [a.u.] :    -0.007397     0.267955    -0.016862 
x,y,z [Debye]:    -0.018802     0.681087    -0.042859 

 

Timings for individual modules:

Sum of individual times         ...     7655.567 sec (= 127.593 min)
GTO integral calculation        ...        8.920 sec (=   0.149 min)   0.1 %
SCF iterations                  ...     1737.976 sec (=  28.966 min)  22.7 %
CIS module                      ...     5908.671 sec (=  98.478 min)  77.2 %



                             ****ORCA TERMINATED NORMALLY****
TOTAL RUN TIME: 1 days 3 hours 38 minutes 30 seconds 917 msec
