
                                 *****************
                                 * O   R   C   A *
                                 *****************

                                            #,                                       
                                            ###                                      
                                            ####                                     
                                            #####                                    
                                            ######                                   
                                           ########,                                 
                                     ,,################,,,,,                         
                               ,,#################################,,                 
                          ,,##########################################,,             
                       ,#########################################, ''#####,          
                    ,#############################################,,   '####,        
                  ,##################################################,,,,####,       
                ,###########''''           ''''###############################       
              ,#####''   ,,,,##########,,,,          '''####'''          '####       
            ,##' ,,,,###########################,,,                        '##       
           ' ,,###''''                  '''############,,,                           
         ,,##''                                '''############,,,,        ,,,,,,###''
      ,#''                                            '''#######################'''  
     '                                                          ''''####''''         
             ,#######,   #######,   ,#######,      ##                                
            ,#'     '#,  ##    ##  ,#'     '#,    #''#        ######   ,####,        
            ##       ##  ##   ,#'  ##            #'  '#       #        #'  '#        
            ##       ##  #######   ##           ,######,      #####,   #    #        
            '#,     ,#'  ##    ##  '#,     ,#' ,#      #,         ##   #,  ,#        
             '#######'   ##     ##  '#######'  #'      '#     #####' # '####'        



                  #######################################################
                  #                        -***-                        #
                  #          Department of theory and spectroscopy      #
                  #    Directorship and core code : Frank Neese         #
                  #        Max Planck Institute fuer Kohlenforschung    #
                  #                Kaiser Wilhelm Platz 1               #
                  #                 D-45470 Muelheim/Ruhr               #
                  #                      Germany                        #
                  #                                                     #
                  #                  All rights reserved                #
                  #                        -***-                        #
                  #######################################################


                         Program Version 5.0.2 -  RELEASE  -


 With contributions from (in alphabetic order):
   Daniel Aravena         : Magnetic Suceptibility
   Michael Atanasov       : Ab Initio Ligand Field Theory (pilot matlab implementation)
   Alexander A. Auer      : GIAO ZORA, VPT2 properties, NMR spectrum
   Ute Becker             : Parallelization
   Giovanni Bistoni       : ED, misc. LED, open-shell LED, HFLD
   Martin Brehm           : Molecular dynamics
   Dmytro Bykov           : SCF Hessian
   Vijay G. Chilkuri      : MRCI spin determinant printing, contributions to CSF-ICE
   Dipayan Datta          : RHF DLPNO-CCSD density
   Achintya Kumar Dutta   : EOM-CC, STEOM-CC
   Dmitry Ganyushin       : Spin-Orbit,Spin-Spin,Magnetic field MRCI
   Miquel Garcia          : C-PCM and meta-GGA Hessian, CC/C-PCM, Gaussian charge scheme
   Yang Guo               : DLPNO-NEVPT2, F12-NEVPT2, CIM, IAO-localization
   Andreas Hansen         : Spin unrestricted coupled pair/coupled cluster methods
   Benjamin Helmich-Paris : MC-RPA, TRAH-SCF, COSX integrals
   Lee Huntington         : MR-EOM, pCC
   Robert Izsak           : Overlap fitted RIJCOSX, COSX-SCS-MP3, EOM
   Marcus Kettner         : VPT2
   Christian Kollmar      : KDIIS, OOCD, Brueckner-CCSD(T), CCSD density, CASPT2, CASPT2-K
   Simone Kossmann        : Meta GGA functionals, TD-DFT gradient, OOMP2, MP2 Hessian
   Martin Krupicka        : Initial AUTO-CI
   Lucas Lang             : DCDCAS
   Marvin Lechner         : AUTO-CI (C++ implementation), FIC-MRCC
   Dagmar Lenk            : GEPOL surface, SMD
   Dimitrios Liakos       : Extrapolation schemes; Compound Job, initial MDCI parallelization
   Dimitrios Manganas     : Further ROCIS development; embedding schemes
   Dimitrios Pantazis     : SARC Basis sets
   Anastasios Papadopoulos: AUTO-CI, single reference methods and gradients
   Taras Petrenko         : DFT Hessian,TD-DFT gradient, ASA, ECA, R-Raman, ABS, FL, XAS/XES, NRVS
   Peter Pinski           : DLPNO-MP2, DLPNO-MP2 Gradient
   Christoph Reimann      : Effective Core Potentials
   Marius Retegan         : Local ZFS, SOC
   Christoph Riplinger    : Optimizer, TS searches, QM/MM, DLPNO-CCSD(T), (RO)-DLPNO pert. Triples
   Tobias Risthaus        : Range-separated hybrids, TD-DFT gradient, RPA, STAB
   Michael Roemelt        : Original ROCIS implementation
   Masaaki Saitow         : Open-shell DLPNO-CCSD energy and density
   Barbara Sandhoefer     : DKH picture change effects
   Avijit Sen             : IP-ROCIS
   Kantharuban Sivalingam : CASSCF convergence, NEVPT2, FIC-MRCI
   Bernardo de Souza      : ESD, SOC TD-DFT
   Georgi Stoychev        : AutoAux, RI-MP2 NMR, DLPNO-MP2 response
   Willem Van den Heuvel  : Paramagnetic NMR
   Boris Wezisla          : Elementary symmetry handling
   Frank Wennmohs         : Technical directorship


 We gratefully acknowledge several colleagues who have allowed us to
 interface, adapt or use parts of their codes:
   Stefan Grimme, W. Hujo, H. Kruse, P. Pracht,  : VdW corrections, initial TS optimization,
                  C. Bannwarth, S. Ehlert          DFT functionals, gCP, sTDA/sTD-DF
   Ed Valeev, F. Pavosevic, A. Kumar             : LibInt (2-el integral package), F12 methods
   Garnet Chan, S. Sharma, J. Yang, R. Olivares  : DMRG
   Ulf Ekstrom                                   : XCFun DFT Library
   Mihaly Kallay                                 : mrcc  (arbitrary order and MRCC methods)
   Jiri Pittner, Ondrej Demel                    : Mk-CCSD
   Frank Weinhold                                : gennbo (NPA and NBO analysis)
   Christopher J. Cramer and Donald G. Truhlar   : smd solvation model
   Lars Goerigk                                  : TD-DFT with DH, B97 family of functionals
   V. Asgeirsson, H. Jonsson                     : NEB implementation
   FAccTs GmbH                                   : IRC, NEB, NEB-TS, DLPNO-Multilevel, CI-OPT
                                                   MM, QMMM, 2- and 3-layer-ONIOM, Crystal-QMMM,
                                                   LR-CPCM, SF, NACMEs, symmetry and pop. for TD-DFT,
                                                   nearIR, NL-DFT gradient (VV10), updates on ESD,
                                                   ML-optimized integration grids
   S Lehtola, MJT Oliveira, MAL Marques          : LibXC Library
   Liviu Ungur et al                             : ANISO software


 Your calculation uses the libint2 library for the computation of 2-el integrals
 For citations please refer to: http://libint.valeyev.net

 Your ORCA version has been built with support for libXC version: 5.1.0
 For citations please refer to: https://tddft.org/programs/libxc/

 This ORCA versions uses:
   CBLAS   interface :  Fast vector & matrix operations
   LAPACKE interface :  Fast linear algebra routines
   SCALAPACK package :  Parallel linear algebra routines
   Shared memory     :  Shared parallel matrices
   BLAS/LAPACK       :  OpenBLAS 0.3.15  USE64BITINT DYNAMIC_ARCH NO_AFFINITY Sandybridge SINGLE_THREADED
        Core in use  :  Sandybridge
   Copyright (c) 2011-2014, The OpenBLAS Project


Your calculation utilizes the atom-pairwise dispersion correction
with the Becke-Johnson damping scheme (D3BJ)
Cite in your paper:
S.Grimme, S.Ehrlich, L.Goerigk, J Comput Chem, (2011), 32, 1456–1465 
S.Grimme, J.Antony, S.Ehrlich and H.Krieg, J.Chem.Phys., 132, (2010), 154104 
   

Your calculation utilizes the SMD solvation module
Please cite in your paper:
A.V. Marenich, C.J. Cramer, D.G. Truhlar J. Phys. Chem. B, 113, (2009), 6378 

================================================================================

----- Orbital basis set information -----
Your calculation utilizes the basis: aug-cc-pVTZ 
    H, B-Ne : Obtained from the ccRepo (grant-hill.group.shef.ac.uk/ccrepo) Feb. 2017
              R. A. Kendall, T. H. Dunning, Jr., R. J. Harrison, J. Chem. Phys. 96, 6796 (1992)
         He : Obtained from the ccRepo (grant-hill.group.shef.ac.uk/ccrepo) Feb. 2017
              D. E. Woon, T. H. Dunning, Jr., J. Chem. Phys. 100, 2975 (1994)
  Li-Be, Na : Obtained from the ccRepo (grant-hill.group.shef.ac.uk/ccrepo) Feb. 2017
              B. P. Prascher, D. E. Woon, K. A. Peterson, T. H. Dunning, Jr., A. K. Wilson, Theor. Chem. Acc. 128, 69 (2011)
         Mg : Obtained from the Peterson Research Group Website (tyr0.chem.wsu.edu/~kipeters) Feb. 2017
              B. P. Prascher, D. E. Woon, K. A. Peterson, T. H. Dunning, Jr., A. K. Wilson, Theor. Chem. Acc. 128, 69 (2011)
      Al-Ar : Obtained from the ccRepo (grant-hill.group.shef.ac.uk/ccrepo) Feb. 2017
              D. E. Woon, T. H. Dunning, Jr., J. Chem. Phys. 98, 1358 (1993)
      Sc-Zn : Obtained from the ccRepo (grant-hill.group.shef.ac.uk/ccrepo) Feb. 2017
              N. B. Balabanov, K. A. Peterson, J. Chem. Phys. 123, 064107 (2005)
              N. B. Balabanov, K. A. Peterson, J. Chem. Phys. 125, 074110 (2006)
      Ga-Kr : Obtained from the ccRepo (grant-hill.group.shef.ac.uk/ccrepo) Feb. 2017
              A. K. Wilson, D. E. Woon, K. A. Peterson, T. H. Dunning, Jr., J. Chem. Phys. 110, 7667 (1999)
     Ag, Au : Obtained from the Peterson Research Group Website (tyr0.chem.wsu.edu/~kipeters) Feb. 2017
              K. A. Peterson, C. Puzzarini, Theor. Chem. Acc. 114, 283 (2005)

The basis set includes element-specific modifications.

Your calculation utilizes the basis: cc-pVTZ 
       H, B-Ne : Obtained from the ccRepo (grant-hill.group.shef.ac.uk/ccrepo) Feb. 2017
                 T. H. Dunning, Jr., J. Chem. Phys. 90, 1007 (1989)
            He : Obtained from the ccRepo (grant-hill.group.shef.ac.uk/ccrepo) Feb. 2017
                 D. E. Woon, T. H. Dunning, Jr., J. Chem. Phys. 100, 2975 (1994)
  Li-Be, Na-Mg : Obtained from the ccRepo (grant-hill.group.shef.ac.uk/ccrepo) Feb. 2017
                 B. P. Prascher, D. E. Woon, K. A. Peterson, T. H. Dunning, Jr., A. K. Wilson, Theor. Chem. Acc. 128, 69 (2011)
         Al-Ar : Obtained from the ccRepo (grant-hill.group.shef.ac.uk/ccrepo) Feb. 2017
                 D. E. Woon, T. H. Dunning, Jr., J. Chem. Phys. 98, 1358 (1993)
            Ca : Obtained from the Peterson Research Group Website (tyr0.chem.wsu.edu/~kipeters) Feb. 2017
                 J. Koput, K. A. Peterson, J. Phys. Chem. 106, 9595 (2002)
         Sc-Zn : Obtained from the ccRepo (grant-hill.group.shef.ac.uk/ccrepo) Feb. 2017
                 N. B. Balabanov, K. A. Peterson, J. Chem. Phys. 123, 064107 (2005)
                 N. B. Balabanov, K. A. Peterson, J. Chem. Phys. 125, 074110 (2006)
         Ga-Kr : Obtained from the ccRepo (grant-hill.group.shef.ac.uk/ccrepo) Feb. 2017
                 A. K. Wilson, D. E. Woon, K. A. Peterson, T. H. Dunning, Jr., J. Chem. Phys. 110, 7667 (1999)
             Y : Obtained from the ccRepo (grant-hill.group.shef.ac.uk/ccrepo) Feb. 2017
                 K. A. Peterson, D. Figgen, M. Dolg, H. Stoll, J. Chem. Phys. 126, 124101 (2007)
        Ag, Au : Obtained from the Peterson Research Group Website (tyr0.chem.wsu.edu/~kipeters) Feb. 2017
                 K. A. Peterson, C. Puzzarini, Theor. Chem. Acc. 114, 283 (2005)

----- AuxJ basis set information -----
Your calculation utilizes the auxiliary basis: aug-cc-pVTZ/JK 
  H, B-F, Al-Cl, Ga-Br : Obtained from the TURBOMOLE 7.0 basis set library

The basis set includes element-specific modifications.

Your calculation utilizes the auxiliary basis: cc-pVTZ/JK 
  H, B-F, Al-Cl, Ga-Br : Obtained from the TURBOMOLE 7.0 basis set library

----- AuxC basis set information -----
Your calculation utilizes the auxiliary basis: aug-cc-pVTZ/C 
  H-He, B-F, Al-Ar, Ga-Kr : Obtained from the EMSL Basis Set Exchange (bse.pnl.gov) Feb. 2017
                            F. Weigend, A. Kohn, C. Hattig, J. Chem. Phys. 116, 3175 (2002)
                   Be, Mg : Obtained from the TURBOMOLE 7.0 basis set library
                            C. Haettig, Phys. Chem. Chem. Phys. 7, 59 (2005)
                       Ne : Obtained from the EMSL Basis Set Exchange (bse.pnl.gov) Feb. 2017
                            C. Haettig, Phys. Chem. Chem. Phys. 7, 59 (2005)
                            F. Weigend, A. Kohn, C. Hattig, J. Chem. Phys. 116, 3175 (2002)
                    Sc-Zn : Obtained from the EMSL Basis Set Exchange (bse.pnl.gov) Feb. 2017
                            J. G. Hill, J. A. Platts, J. Chem. Phys. 128, 044104 (2008)

The basis set includes element-specific modifications.

Your calculation utilizes the auxiliary basis: cc-pVTZ/C 
  Obtained from the EMSL Basis Set Exchange (bse.pnl.gov) Feb. 2017
  H-He, B-F, Al-Ar, Ga-Kr : F. Weigend, A. Kohn, C. Hattig, J. Chem. Phys. 116, 3175 (2002)
             Li-Be, Na-Mg : C. Haettig, Phys. Chem. Chem. Phys. 7, 59 (2005)
                       Ne : C. Haettig, Phys. Chem. Chem. Phys. 7, 59 (2005)
                            F. Weigend, A. Kohn, C. Hattig, J. Chem. Phys. 116, 3175 (2002)
                    Sc-Zn : J. G. Hill, J. A. Platts, J. Chem. Phys. 128, 044104 (2008)

================================================================================
                                        WARNINGS
                       Please study these warnings very carefully!
================================================================================


WARNING: Geometry Optimization
  ===> : Switching off AutoStart
         For restart on a previous wavefunction, please use MOREAD

INFO   : the flag for use of the SHARK integral package has been found!



***************************************
The coordinates will be read from file: 
***************************************


Your calculation utilizes the atom-pairwise dispersion correction
with the Becke-Johnson damping scheme (D3BJ)
Cite in your paper:
S.Grimme, S.Ehrlich, L.Goerigk, J Comput Chem, (2011), 32, 1456–1465 
S.Grimme, J.Antony, S.Ehrlich and H.Krieg, J.Chem.Phys., 132, (2010), 154104 
   

Your calculation utilizes the SMD solvation module
Please cite in your paper:
A.V. Marenich, C.J. Cramer, D.G. Truhlar J. Phys. Chem. B, 113, (2009), 6378 

================================================================================

----- Orbital basis set information -----
Your calculation utilizes the basis: aug-cc-pVTZ 
    H, B-Ne : Obtained from the ccRepo (grant-hill.group.shef.ac.uk/ccrepo) Feb. 2017
              R. A. Kendall, T. H. Dunning, Jr., R. J. Harrison, J. Chem. Phys. 96, 6796 (1992)
         He : Obtained from the ccRepo (grant-hill.group.shef.ac.uk/ccrepo) Feb. 2017
              D. E. Woon, T. H. Dunning, Jr., J. Chem. Phys. 100, 2975 (1994)
  Li-Be, Na : Obtained from the ccRepo (grant-hill.group.shef.ac.uk/ccrepo) Feb. 2017
              B. P. Prascher, D. E. Woon, K. A. Peterson, T. H. Dunning, Jr., A. K. Wilson, Theor. Chem. Acc. 128, 69 (2011)
         Mg : Obtained from the Peterson Research Group Website (tyr0.chem.wsu.edu/~kipeters) Feb. 2017
              B. P. Prascher, D. E. Woon, K. A. Peterson, T. H. Dunning, Jr., A. K. Wilson, Theor. Chem. Acc. 128, 69 (2011)
      Al-Ar : Obtained from the ccRepo (grant-hill.group.shef.ac.uk/ccrepo) Feb. 2017
              D. E. Woon, T. H. Dunning, Jr., J. Chem. Phys. 98, 1358 (1993)
      Sc-Zn : Obtained from the ccRepo (grant-hill.group.shef.ac.uk/ccrepo) Feb. 2017
              N. B. Balabanov, K. A. Peterson, J. Chem. Phys. 123, 064107 (2005)
              N. B. Balabanov, K. A. Peterson, J. Chem. Phys. 125, 074110 (2006)
      Ga-Kr : Obtained from the ccRepo (grant-hill.group.shef.ac.uk/ccrepo) Feb. 2017
              A. K. Wilson, D. E. Woon, K. A. Peterson, T. H. Dunning, Jr., J. Chem. Phys. 110, 7667 (1999)
     Ag, Au : Obtained from the Peterson Research Group Website (tyr0.chem.wsu.edu/~kipeters) Feb. 2017
              K. A. Peterson, C. Puzzarini, Theor. Chem. Acc. 114, 283 (2005)

The basis set includes element-specific modifications.

Your calculation utilizes the basis: cc-pVTZ 
       H, B-Ne : Obtained from the ccRepo (grant-hill.group.shef.ac.uk/ccrepo) Feb. 2017
                 T. H. Dunning, Jr., J. Chem. Phys. 90, 1007 (1989)
            He : Obtained from the ccRepo (grant-hill.group.shef.ac.uk/ccrepo) Feb. 2017
                 D. E. Woon, T. H. Dunning, Jr., J. Chem. Phys. 100, 2975 (1994)
  Li-Be, Na-Mg : Obtained from the ccRepo (grant-hill.group.shef.ac.uk/ccrepo) Feb. 2017
                 B. P. Prascher, D. E. Woon, K. A. Peterson, T. H. Dunning, Jr., A. K. Wilson, Theor. Chem. Acc. 128, 69 (2011)
         Al-Ar : Obtained from the ccRepo (grant-hill.group.shef.ac.uk/ccrepo) Feb. 2017
                 D. E. Woon, T. H. Dunning, Jr., J. Chem. Phys. 98, 1358 (1993)
            Ca : Obtained from the Peterson Research Group Website (tyr0.chem.wsu.edu/~kipeters) Feb. 2017
                 J. Koput, K. A. Peterson, J. Phys. Chem. 106, 9595 (2002)
         Sc-Zn : Obtained from the ccRepo (grant-hill.group.shef.ac.uk/ccrepo) Feb. 2017
                 N. B. Balabanov, K. A. Peterson, J. Chem. Phys. 123, 064107 (2005)
                 N. B. Balabanov, K. A. Peterson, J. Chem. Phys. 125, 074110 (2006)
         Ga-Kr : Obtained from the ccRepo (grant-hill.group.shef.ac.uk/ccrepo) Feb. 2017
                 A. K. Wilson, D. E. Woon, K. A. Peterson, T. H. Dunning, Jr., J. Chem. Phys. 110, 7667 (1999)
             Y : Obtained from the ccRepo (grant-hill.group.shef.ac.uk/ccrepo) Feb. 2017
                 K. A. Peterson, D. Figgen, M. Dolg, H. Stoll, J. Chem. Phys. 126, 124101 (2007)
        Ag, Au : Obtained from the Peterson Research Group Website (tyr0.chem.wsu.edu/~kipeters) Feb. 2017
                 K. A. Peterson, C. Puzzarini, Theor. Chem. Acc. 114, 283 (2005)

----- AuxJ basis set information -----
Your calculation utilizes the auxiliary basis: aug-cc-pVTZ/JK 
  H, B-F, Al-Cl, Ga-Br : Obtained from the TURBOMOLE 7.0 basis set library

The basis set includes element-specific modifications.

Your calculation utilizes the auxiliary basis: cc-pVTZ/JK 
  H, B-F, Al-Cl, Ga-Br : Obtained from the TURBOMOLE 7.0 basis set library

----- AuxC basis set information -----
Your calculation utilizes the auxiliary basis: aug-cc-pVTZ/C 
  H-He, B-F, Al-Ar, Ga-Kr : Obtained from the EMSL Basis Set Exchange (bse.pnl.gov) Feb. 2017
                            F. Weigend, A. Kohn, C. Hattig, J. Chem. Phys. 116, 3175 (2002)
                   Be, Mg : Obtained from the TURBOMOLE 7.0 basis set library
                            C. Haettig, Phys. Chem. Chem. Phys. 7, 59 (2005)
                       Ne : Obtained from the EMSL Basis Set Exchange (bse.pnl.gov) Feb. 2017
                            C. Haettig, Phys. Chem. Chem. Phys. 7, 59 (2005)
                            F. Weigend, A. Kohn, C. Hattig, J. Chem. Phys. 116, 3175 (2002)
                    Sc-Zn : Obtained from the EMSL Basis Set Exchange (bse.pnl.gov) Feb. 2017
                            J. G. Hill, J. A. Platts, J. Chem. Phys. 128, 044104 (2008)

The basis set includes element-specific modifications.

Your calculation utilizes the auxiliary basis: cc-pVTZ/C 
  Obtained from the EMSL Basis Set Exchange (bse.pnl.gov) Feb. 2017
  H-He, B-F, Al-Ar, Ga-Kr : F. Weigend, A. Kohn, C. Hattig, J. Chem. Phys. 116, 3175 (2002)
             Li-Be, Na-Mg : C. Haettig, Phys. Chem. Chem. Phys. 7, 59 (2005)
                       Ne : C. Haettig, Phys. Chem. Chem. Phys. 7, 59 (2005)
                            F. Weigend, A. Kohn, C. Hattig, J. Chem. Phys. 116, 3175 (2002)
                    Sc-Zn : J. G. Hill, J. A. Platts, J. Chem. Phys. 128, 044104 (2008)

================================================================================
                                        WARNINGS
                       Please study these warnings very carefully!
================================================================================

INFO   : Checking CIS options ...
  ===> : (D) CORRECTION FOUND - SETTING MODE=3
  ===> : JK MODE FOUND - ACTIVATING RI-MP2 CODE
  ===> : MP2 AND CIS FOUND - CHECKING
WARNING: CIS(D) and MP2 runs must have the same orbital window
  ===> : adjusting orbital windows

WARNING: No MP2 level density has been requested!
         To caclulate MP2 level properties use
         %mp2 Density relaxed end
         or
         %mp2 Density unrelaxed end
         Otherwise for double-hybrid DFT only the energy is correct!

WARNING: The frozen-core approximation is turned on by default for 
         the MP2 part of double-hybrid DFT.

INFO   : the flag for use of the SHARK integral package has been found!

================================================================================
                                       INPUT FILE
================================================================================
NAME = optpbed3-b2gp-plyp-train-14.inp
|  1> ! pbe0 d3bj aug-cc-PVTZ RIJCOSX Opt
|  2> %maxcore 4000
|  3> %basis
|  4>  AuxJ "aug-cc-PVTZ/JK"
|  5>  AuxC "aug-cc-PVTZ/C"
|  6>  newGTO H "cc-PVTZ" end
|  7>  newAuxJGTO H "cc-PVTZ/JK" end
|  8>  newAuxCGTO H "cc-PVTZ/C" end
|  9> end
| 10> %cpcm
| 11>  SMD true
| 12>  SMDsolvent "n,n-dimethylformamide"
| 13> end
| 14> %pal nprocs 4 end
| 15> * xyz 0 1
| 16> C         -2.82150       -2.31600       -0.52420
| 17> N         -2.34630       -0.95930       -0.29970
| 18> C         -3.31610        0.05570       -0.21380
| 19> C         -4.67480       -0.26280       -0.30710
| 20> C         -5.63820        0.72560       -0.22610
| 21> C         -5.28100        2.05040       -0.05140
| 22> C         -3.93830        2.37360        0.04160
| 23> C         -2.96630        1.39530       -0.03870
| 24> C         -1.01900       -0.81700       -0.19380
| 25> C          0.02650       -1.83130       -0.27030
| 26> O          0.04390       -3.04580       -0.44680
| 27> C          1.04280       -0.80810       -0.05160
| 28> N          2.37350       -0.93840        0.02220
| 29> C          2.88680       -2.29040       -0.13710
| 30> C          3.31410        0.08570        0.23360
| 31> C          2.92730        1.41300        0.42350
| 32> C          3.87120        2.40040        0.62980
| 33> C          5.22180        2.09810        0.65450
| 34> C          5.61550        0.78540        0.46800
| 35> C          4.68050       -0.21160        0.26010
| 36> C         -0.00270        0.21620        0.02390
| 37> O         -0.01980        1.42500        0.19510
| 38> H         -3.45850       -2.63510        0.30220
| 39> H         -3.38190       -2.36850       -1.45870
| 40> H         -1.97410       -2.99420       -0.58860
| 41> H         -5.00960       -1.27710       -0.44140
| 42> H         -6.67990        0.44990       -0.30110
| 43> H         -6.03770        2.81740        0.01150
| 44> H         -3.63630        3.40100        0.17840
| 45> H         -1.93440        1.68880        0.03970
| 46> H          2.05930       -2.98100       -0.28080
| 47> H          3.54010       -2.34620       -1.00910
| 48> H          3.44030       -2.59040        0.75380
| 49> H          1.88820        1.69060        0.41040
| 50> H          3.54070        3.41810        0.77290
| 51> H          5.95640        2.87210        0.81620
| 52> H          6.66400        0.52620        0.48300
| 53> H          5.04340       -1.21540        0.11950
| 54> *
| 55> 
| 56> 
| 57> $new_job
| 58> ! b2gp-plyp aug-cc-PVTZ RIJCOSX SP
| 59> %maxcore 4000
| 60> %basis
| 61>  AuxJ "aug-cc-PVTZ/JK"
| 62>  AuxC "aug-cc-PVTZ/C"
| 63>  newGTO H "cc-PVTZ" end
| 64>  newAuxJGTO H "cc-PVTZ/JK" end
| 65>  newAuxCGTO H "cc-PVTZ/C" end
| 66> end
| 67> %cpcm
| 68>  SMD true
| 69>  SMDsolvent "n,n-dimethylformamide"
| 70> end
| 71> %pal nprocs 4 end
| 72> %tddft
| 73>  nroots 10
| 74>  maxdim 7
| 75> end
| 76> * xyzfile 0 1
| 77> 
| 78>                          ****END OF INPUT****
================================================================================


                 $$$$$$$$$$$$$$$$$$$$$$$$$$$$$$$$$$$$$$$$$$$$$$ 
                 $ THERE ARE  2 JOBS TO BE PROCESSED THIS RUN $
                 $$$$$$$$$$$$$$$$$$$$$$$$$$$$$$$$$$$$$$$$$$$$$$ 




                 $$$$$$$$$$$$$$$$  JOB NUMBER  1 $$$$$$$$$$$$$$


                       *****************************
                       * Geometry Optimization Run *
                       *****************************

Geometry optimization settings:
Update method            Update   .... BFGS
Choice of coordinates    CoordSys .... Z-matrix Internals
Initial Hessian          InHess   .... Almoef's Model

Convergence Tolerances:
Energy Change            TolE     ....  5.0000e-06 Eh
Max. Gradient            TolMAXG  ....  3.0000e-04 Eh/bohr
RMS Gradient             TolRMSG  ....  1.0000e-04 Eh/bohr
Max. Displacement        TolMAXD  ....  4.0000e-03 bohr
RMS Displacement         TolRMSD  ....  2.0000e-03 bohr
Strict Convergence                ....  False
------------------------------------------------------------------------------
                        ORCA OPTIMIZATION COORDINATE SETUP
------------------------------------------------------------------------------

The optimization will be done in new redundant internal coordinates
Making redundant internal coordinates   ...  (new redundants) done
Evaluating the initial hessian          ...  (Almloef) done
Evaluating the coordinates              ...  done
Calculating the B-matrix                .... done
Calculating the G-matrix                .... done
Diagonalizing the G-matrix              .... done
Small eigenvalue found = 1.551e-03
Small eigenvalue found = 8.353e-03
Small eigenvalue found = 1.427e-02
Small eigenvalue found = 1.835e-02
Small eigenvalue found = 2.085e-02
The first mode is                       ....   90
The number of degrees of freedom        ....  108

    -----------------------------------------------------------------
                    Redundant Internal Coordinates


    -----------------------------------------------------------------
         Definition                    Initial Value    Approx d2E/dq
    -----------------------------------------------------------------
      1. B(N   1,C   0)                  1.4549         0.440827   
      2. B(C   2,N   1)                  1.4065         0.526772   
      3. B(C   3,C   2)                  1.3986         0.605262   
      4. B(C   4,C   3)                  1.3826         0.641970   
      5. B(C   5,C   4)                  1.3832         0.640631   
      6. B(C   6,C   5)                  1.3842         0.638302   
      7. B(C   7,C   2)                  1.3955         0.612196   
      8. B(C   7,C   6)                  1.3814         0.644819   
      9. B(C   8,N   1)                  1.3391         0.674657   
     10. B(C   9,C   8)                  1.4587         0.485484   
     11. B(O  10,C   9)                  1.2274         1.017005   
     12. B(C  11,C   9)                  1.4586         0.485541   
     13. B(N  12,C  11)                  1.3391         0.674659   
     14. B(C  13,N  12)                  1.4549         0.440878   
     15. B(C  14,N  12)                  1.4065         0.526714   
     16. B(C  15,C  14)                  1.3955         0.612314   
     17. B(C  16,C  15)                  1.3815         0.644680   
     18. B(C  17,C  16)                  1.3842         0.638162   
     19. B(C  18,C  17)                  1.3831         0.640838   
     20. B(C  19,C  18)                  1.3826         0.642122   
     21. B(C  19,C  14)                  1.3986         0.605321   
     22. B(C  20,C  11)                  1.4656         0.473299   
     23. B(C  20,C   8)                  1.4655         0.473418   
     24. B(O  21,C  20)                  1.2210         1.041193   
     25. B(H  22,C   0)                  1.0911         0.358629   
     26. B(H  23,C   0)                  1.0909         0.358892   
     27. B(H  24,C   0)                  1.0873         0.363709   
     28. B(H  25,C   3)                  1.0765         0.378358   
     29. B(H  26,C   4)                  1.0802         0.373337   
     30. B(H  27,C   5)                  1.0793         0.374567   
     31. B(H  28,C   6)                  1.0796         0.374167   
     32. B(H  29,C   7)                  1.0757         0.379538   
     33. B(H  30,C  13)                  1.0874         0.363620   
     34. B(H  31,C  13)                  1.0910         0.358769   
     35. B(H  32,C  13)                  1.0909         0.358910   
     36. B(H  33,C  15)                  1.0756         0.379632   
     37. B(H  34,C  16)                  1.0795         0.374197   
     38. B(H  35,C  17)                  1.0793         0.374555   
     39. B(H  36,C  18)                  1.0802         0.373345   
     40. B(H  37,C  19)                  1.0766         0.378263   
     41. A(N   1,C   0,H  23)          110.1716         0.331108   
     42. A(H  22,C   0,H  23)          109.5617         0.290499   
     43. A(N   1,C   0,H  22)          110.2745         0.331068   
     44. A(H  23,C   0,H  24)          108.6391         0.291142   
     45. A(N   1,C   0,H  24)          109.6471         0.331840   
     46. A(H  22,C   0,H  24)          108.5084         0.291108   
     47. A(C   0,N   1,C   8)          115.7870         0.409261   
     48. A(C   2,N   1,C   8)          127.0090         0.422436   
     49. A(C   0,N   1,C   2)          117.2039         0.391818   
     50. A(C   3,C   2,C   7)          118.0639         0.431210   
     51. A(N   1,C   2,C   7)          121.8414         0.417890   
     52. A(N   1,C   2,C   3)          120.0945         0.417043   
     53. A(C   4,C   3,H  25)          117.6555         0.357991   
     54. A(C   2,C   3,C   4)          120.6767         0.434908   
     55. A(C   2,C   3,H  25)          121.6677         0.354430   
     56. A(C   3,C   4,H  26)          119.0416         0.357179   
     57. A(C   5,C   4,H  26)          120.1509         0.357053   
     58. A(C   3,C   4,C   5)          120.8075         0.439383   
     59. A(C   4,C   5,H  27)          120.4618         0.357252   
     60. A(C   4,C   5,C   6)          118.8574         0.438929   
     61. A(C   6,C   5,H  27)          120.6808         0.357031   
     62. A(C   7,C   6,H  28)          118.9796         0.357583   
     63. A(C   5,C   6,H  28)          120.1380         0.356966   
     64. A(C   5,C   6,C   7)          120.8824         0.439445   
     65. A(C   6,C   7,H  29)          118.5235         0.358451   
     66. A(C   2,C   7,H  29)          120.7642         0.355303   
     67. A(C   2,C   7,C   6)          120.7120         0.436148   
     68. A(C   9,C   8,C  20)           90.0559         0.396147   
     69. A(N   1,C   8,C  20)          140.7168         0.417174   
     70. A(N   1,C   8,C   9)          129.2268         0.419048   
     71. A(C   8,C   9,O  10)          134.8912         0.451176   
     72. A(O  10,C   9,C  11)          134.8939         0.451186   
     73. A(C   8,C   9,C  11)           90.2149         0.397910   
     74. A(C   9,C  11,C  20)           90.0545         0.396138   
     75. A(C   9,C  11,N  12)          129.2260         0.419057   
     76. A(N  12,C  11,C  20)          140.7195         0.417155   
     77. A(C  13,N  12,C  14)          117.2027         0.391819   
     78. A(C  11,N  12,C  14)          127.0132         0.422428   
     79. A(C  11,N  12,C  13)          115.7840         0.409270   
     80. A(H  31,C  13,H  32)          109.5630         0.290519   
     81. A(N  12,C  13,H  32)          110.1903         0.331117   
     82. A(H  30,C  13,H  31)          108.5174         0.291115   
     83. A(N  12,C  13,H  31)          110.2613         0.331096   
     84. A(N  12,C  13,H  30)          109.6440         0.331833   
     85. A(H  30,C  13,H  32)          108.6263         0.291133   
     86. A(C  15,C  14,C  19)          118.0598         0.431232   
     87. A(N  12,C  14,C  19)          120.0944         0.417042   
     88. A(N  12,C  14,C  15)          121.8457         0.417896   
     89. A(C  16,C  15,H  33)          118.5165         0.358453   
     90. A(C  14,C  15,H  33)          120.7692         0.355330   
     91. A(C  14,C  15,C  16)          120.7141         0.436147   
     92. A(C  17,C  16,H  34)          120.1469         0.356958   
     93. A(C  15,C  16,H  34)          118.9742         0.357575   
     94. A(C  15,C  16,C  17)          120.8790         0.439411   
     95. A(C  18,C  17,H  35)          120.4707         0.357270   
     96. A(C  16,C  17,H  35)          120.6741         0.357016   
     97. A(C  16,C  17,C  18)          118.8553         0.438937   
     98. A(C  17,C  18,H  36)          120.1444         0.357074   
     99. A(C  17,C  18,C  19)          120.8102         0.439427   
    100. A(C  19,C  18,H  36)          119.0454         0.357195   
    101. A(C  14,C  19,C  18)          120.6815         0.434934   
    102. A(C  18,C  19,H  37)          117.6481         0.357991   
    103. A(C  14,C  19,H  37)          121.6703         0.354421   
    104. A(C  11,C  20,O  21)          135.1649         0.451019   
    105. A(C   8,C  20,O  21)          135.1606         0.451040   
    106. A(C   8,C  20,C  11)           89.6745         0.394385   
    107. D(C   2,N   1,C   0,H  24)    178.9303         0.016571   
    108. D(C   2,N   1,C   0,H  23)     59.4126         0.016571   
    109. D(C   2,N   1,C   0,H  22)    -61.6495         0.016571   
    110. D(C   8,N   1,C   0,H  23)   -120.7404         0.016571   
    111. D(C   8,N   1,C   0,H  22)    118.1975         0.016571   
    112. D(C   8,N   1,C   0,H  24)     -1.2227         0.016571   
    113. D(C   3,C   2,N   1,C   0)      1.7133         0.022024   
    114. D(C   7,C   2,N   1,C   0)   -178.1291         0.022024   
    115. D(C   3,C   2,N   1,C   8)   -178.1142         0.022024   
    116. D(C   7,C   2,N   1,C   8)      2.0435         0.022024   
    117. D(H  25,C   3,C   2,N   1)      0.2208         0.025279   
    118. D(C   4,C   3,C   2,C   7)     -0.0614         0.025279   
    119. D(C   4,C   3,C   2,N   1)   -179.9097         0.025279   
    120. D(H  25,C   3,C   2,C   7)   -179.9310         0.025279   
    121. D(C   5,C   4,C   3,C   2)      0.0113         0.028646   
    122. D(C   5,C   4,C   3,H  25)    179.8859         0.028646   
    123. D(H  26,C   4,C   3,H  25)     -0.1043         0.028646   
    124. D(H  26,C   4,C   3,C   2)   -179.9789         0.028646   
    125. D(H  27,C   5,C   4,H  26)      0.0150         0.028518   
    126. D(C   6,C   5,C   4,H  26)    179.9895         0.028518   
    127. D(C   6,C   5,C   4,C   3)     -0.0005         0.028518   
    128. D(H  27,C   5,C   4,C   3)   -179.9750         0.028518   
    129. D(H  28,C   6,C   5,H  27)     -0.0064         0.028298   
    130. D(H  28,C   6,C   5,C   4)   -179.9808         0.028298   
    131. D(C   7,C   6,C   5,H  27)   -179.9834         0.028298   
    132. D(C   7,C   6,C   5,C   4)      0.0421         0.028298   
    133. D(H  29,C   7,C   2,C   3)    179.9175         0.025895   
    134. D(H  29,C   7,C   2,N   1)     -0.2370         0.025895   
    135. D(C   6,C   7,C   2,C   3)      0.1028         0.025895   
    136. D(C   2,C   7,C   6,C   5)     -0.0950         0.028918   
    137. D(C   6,C   7,C   2,N   1)    179.9482         0.025895   
    138. D(H  29,C   7,C   6,H  28)      0.1089         0.028918   
    139. D(H  29,C   7,C   6,C   5)   -179.9138         0.028918   
    140. D(C   2,C   7,C   6,H  28)    179.9277         0.028918   
    141. D(C  20,C   8,N   1,C   2)      0.1068         0.037397   
    142. D(C  20,C   8,N   1,C   0)   -179.7228         0.037397   
    143. D(C   9,C   8,N   1,C   2)    179.7776         0.037397   
    144. D(C   9,C   8,N   1,C   0)     -0.0520         0.037397   
    145. D(C  11,C   9,C   8,C  20)      0.0949         0.016048   
    146. D(C  11,C   9,C   8,N   1)   -179.6966         0.016048   
    147. D(O  10,C   9,C   8,C  20)   -179.8701         0.016048   
    148. D(O  10,C   9,C   8,N   1)      0.3384         0.016048   
    149. D(C  20,C  11,C   9,O  10)    179.8701         0.016051   
    150. D(C  20,C  11,C   9,C   8)     -0.0949         0.016051   
    151. D(N  12,C  11,C   9,O  10)     -0.1368         0.016051   
    152. D(N  12,C  11,C   9,C   8)    179.8982         0.016051   
    153. D(C  14,N  12,C  11,C  20)     -0.1197         0.037397   
    154. D(C  14,N  12,C  11,C   9)    179.8912         0.037397   
    155. D(C  13,N  12,C  11,C  20)    179.9695         0.037397   
    156. D(C  13,N  12,C  11,C   9)     -0.0196         0.037397   
    157. D(H  32,C  13,N  12,C  14)     59.8230         0.016575   
    158. D(H  32,C  13,N  12,C  11)   -120.2571         0.016575   
    159. D(H  31,C  13,N  12,C  14)    -61.2442         0.016575   
    160. D(H  31,C  13,N  12,C  11)    118.6757         0.016575   
    161. D(H  30,C  13,N  12,C  14)    179.3345         0.016575   
    162. D(H  30,C  13,N  12,C  11)     -0.7456         0.016575   
    163. D(C  19,C  14,N  12,C  13)      1.1235         0.022019   
    164. D(C  19,C  14,N  12,C  11)   -178.7862         0.022019   
    165. D(C  15,C  14,N  12,C  13)   -178.7819         0.022019   
    166. D(C  15,C  14,N  12,C  11)      1.3083         0.022019   
    167. D(H  33,C  15,C  14,N  12)     -0.1616         0.025906   
    168. D(C  16,C  15,C  14,C  19)      0.0671         0.025906   
    169. D(C  16,C  15,C  14,N  12)    179.9744         0.025906   
    170. D(H  33,C  15,C  14,C  19)    179.9311         0.025906   
    171. D(H  34,C  16,C  15,H  33)      0.0903         0.028905   
    172. D(H  34,C  16,C  15,C  14)    179.9573         0.028905   
    173. D(C  17,C  16,C  15,H  33)   -179.9284         0.028905   
    174. D(C  17,C  16,C  15,C  14)     -0.0614         0.028905   
    175. D(H  35,C  17,C  16,H  34)     -0.0025         0.028284   
    176. D(H  35,C  17,C  16,C  15)   -179.9835         0.028284   
    177. D(C  18,C  17,C  16,H  34)   -179.9921         0.028284   
    178. D(C  18,C  17,C  16,C  15)      0.0269         0.028284   
    179. D(H  36,C  18,C  17,H  35)     -0.0076         0.028538   
    180. D(H  36,C  18,C  17,C  16)    179.9820         0.028538   
    181. D(C  19,C  18,C  17,H  35)   -179.9898         0.028538   
    182. D(C  19,C  18,C  17,C  16)     -0.0002         0.028538   
    183. D(H  37,C  19,C  18,H  36)     -0.0599         0.028660   
    184. D(H  37,C  19,C  18,C  17)    179.9226         0.028660   
    185. D(C  14,C  19,C  18,H  36)   -179.9747         0.028660   
    186. D(C  14,C  19,C  18,C  17)      0.0078         0.028660   
    187. D(H  37,C  19,C  14,C  15)   -179.9519         0.025284   
    188. D(H  37,C  19,C  14,N  12)      0.1391         0.025284   
    189. D(C  18,C  19,C  14,C  15)     -0.0406         0.025284   
    190. D(C  18,C  19,C  14,N  12)   -179.9496         0.025284   
    191. D(O  21,C  20,C  11,N  12)      0.1727         0.015253   
    192. D(O  21,C  20,C  11,C   9)   -179.8358         0.015253   
    193. D(C   8,C  20,C  11,N  12)   -179.8971         0.015253   
    194. D(C   8,C  20,C  11,C   9)      0.0945         0.015253   
    195. D(O  21,C  20,C   8,C   9)    179.8358         0.015260   
    196. D(O  21,C  20,C   8,N   1)     -0.4193         0.015260   
    197. D(C  11,C  20,C   8,C   9)     -0.0944         0.015260   
    198. D(C  11,C  20,C   8,N   1)    179.6505         0.015260   
    -----------------------------------------------------------------

Number of atoms                         .... 38
Number of degrees of freedom            .... 198

         *************************************************************
         *                GEOMETRY OPTIMIZATION CYCLE   1            *
         *************************************************************
---------------------------------
CARTESIAN COORDINATES (ANGSTROEM)
---------------------------------
  C     -2.821500   -2.316000   -0.524200
  N     -2.346300   -0.959300   -0.299700
  C     -3.316100    0.055700   -0.213800
  C     -4.674800   -0.262800   -0.307100
  C     -5.638200    0.725600   -0.226100
  C     -5.281000    2.050400   -0.051400
  C     -3.938300    2.373600    0.041600
  C     -2.966300    1.395300   -0.038700
  C     -1.019000   -0.817000   -0.193800
  C      0.026500   -1.831300   -0.270300
  O      0.043900   -3.045800   -0.446800
  C      1.042800   -0.808100   -0.051600
  N      2.373500   -0.938400    0.022200
  C      2.886800   -2.290400   -0.137100
  C      3.314100    0.085700    0.233600
  C      2.927300    1.413000    0.423500
  C      3.871200    2.400400    0.629800
  C      5.221800    2.098100    0.654500
  C      5.615500    0.785400    0.468000
  C      4.680500   -0.211600    0.260100
  C     -0.002700    0.216200    0.023900
  O     -0.019800    1.425000    0.195100
  H     -3.458500   -2.635100    0.302200
  H     -3.381900   -2.368500   -1.458700
  H     -1.974100   -2.994200   -0.588600
  H     -5.009600   -1.277100   -0.441400
  H     -6.679900    0.449900   -0.301100
  H     -6.037700    2.817400    0.011500
  H     -3.636300    3.401000    0.178400
  H     -1.934400    1.688800    0.039700
  H      2.059300   -2.981000   -0.280800
  H      3.540100   -2.346200   -1.009100
  H      3.440300   -2.590400    0.753800
  H      1.888200    1.690600    0.410400
  H      3.540700    3.418100    0.772900
  H      5.956400    2.872100    0.816200
  H      6.664000    0.526200    0.483000
  H      5.043400   -1.215400    0.119500

----------------------------
CARTESIAN COORDINATES (A.U.)
----------------------------
  NO LB      ZA    FRAG     MASS         X           Y           Z
   0 C     6.0000    0    12.011   -5.331862   -4.376606   -0.990594
   1 N     7.0000    0    14.007   -4.433864   -1.812814   -0.566351
   2 C     6.0000    0    12.011   -6.266521    0.105258   -0.404023
   3 C     6.0000    0    12.011   -8.834092   -0.496620   -0.580335
   4 C     6.0000    0    12.011  -10.654654    1.371185   -0.427267
   5 C     6.0000    0    12.011   -9.979644    3.874694   -0.097132
   6 C     6.0000    0    12.011   -7.442308    4.485454    0.078613
   7 C     6.0000    0    12.011   -5.605495    2.636735   -0.073132
   8 C     6.0000    0    12.011   -1.925631   -1.543906   -0.366229
   9 C     6.0000    0    12.011    0.050078   -3.460655   -0.510793
  10 O     8.0000    0    15.999    0.082959   -5.755728   -0.844330
  11 C     6.0000    0    12.011    1.970606   -1.527088   -0.097510
  12 N     7.0000    0    14.007    4.485265   -1.773319    0.041952
  13 C     6.0000    0    12.011    5.455261   -4.328229   -0.259081
  14 C     6.0000    0    12.011    6.262741    0.161950    0.441440
  15 C     6.0000    0    12.011    5.531795    2.670183    0.800299
  16 C     6.0000    0    12.011    7.315508    4.536099    1.190150
  17 C     6.0000    0    12.011    9.867772    3.964834    1.236826
  18 C     6.0000    0    12.011   10.611757    1.484191    0.884392
  19 C     6.0000    0    12.011    8.844863   -0.399866    0.491518
  20 C     6.0000    0    12.011   -0.005102    0.408559    0.045164
  21 O     8.0000    0    15.999   -0.037417    2.692860    0.368686
  22 H     1.0000    0     1.008   -6.535618   -4.979617    0.571075
  23 H     1.0000    0     1.008   -6.390865   -4.475816   -2.756544
  24 H     1.0000    0     1.008   -3.730508   -5.658218   -1.112293
  25 H     1.0000    0     1.008   -9.466772   -2.413369   -0.834125
  26 H     1.0000    0     1.008  -12.623182    0.850188   -0.568997
  27 H     1.0000    0     1.008  -11.409599    5.324114    0.021732
  28 H     1.0000    0     1.008   -6.871611    6.426959    0.337127
  29 H     1.0000    0     1.008   -3.655486    3.191369    0.075022
  30 H     1.0000    0     1.008    3.891513   -5.633274   -0.530635
  31 H     1.0000    0     1.008    6.689819   -4.433675   -1.906923
  32 H     1.0000    0     1.008    6.501225   -4.895147    1.424476
  33 H     1.0000    0     1.008    3.568181    3.194771    0.775544
  34 H     1.0000    0     1.008    6.690953    6.459273    1.460569
  35 H     1.0000    0     1.008   11.255965    5.427482    1.542394
  36 H     1.0000    0     1.008   12.593135    0.994374    0.912738
  37 H     1.0000    0     1.008    9.530645   -2.296773    0.225822

--------------------------------
INTERNAL COORDINATES (ANGSTROEM)
--------------------------------
 C      0   0   0     0.000000000000     0.00000000     0.00000000
 N      1   0   0     1.454939923158     0.00000000     0.00000000
 C      2   1   0     1.406455065048   117.20387589     0.00000000
 C      3   2   1     1.398646785289   120.09449705     1.71329959
 C      4   3   2     1.382618935210   120.67668408   180.09032656
 C      5   4   3     1.383187250520   120.80750183     0.00000000
 C      6   5   4     1.384178648152   118.85738097     0.00000000
 C      7   6   5     1.381413399385   120.88239918     0.04212810
 C      2   1   3     1.339100216563   115.78695663   179.84700658
 C      9   2   1     1.458673023676   129.22677189   359.94795508
 O     10   9   2     1.227381464745   134.89120785     0.33839773
 C     10   9   2     1.458641018208    90.21487419   180.30335312
 N     12  10   9     1.339099331640   129.22599638   179.89819655
 C     13  12  10     1.454908031458   115.78404292     0.00000000
 C     13  12  10     1.406484671086   127.01315958   179.89119234
 C     15  13  12     1.395493296293   121.84574609     1.30834189
 C     16  15  13     1.381472279852   120.71414506   179.97440047
 C     17  16  15     1.384238324856   120.87897239   359.93857802
 C     18  17  16     1.383099139614   118.85526269     0.02687925
 C     19  18  17     1.382554306347   120.81020144     0.00000000
 C      9   2   1     1.465524213379   140.71682351   180.27718786
 O     21   9   2     1.220982919618   135.16056839   359.58074698
 H      1   2   3     1.091114462373   110.27445571   298.35052711
 H      1   2   3     1.090914597941   110.17159798    59.41264044
 H      1   2   3     1.087285316741   109.64709396   178.93028660
 H      4   3   2     1.076537049989   121.66768799     0.22081197
 H      5   4   3     1.080173310168   119.04164452   180.02111013
 H      6   5   4     1.079277675114   120.46178158   180.02498307
 H      7   6   5     1.079568895439   120.13802637   180.01918956
 H      8   7   6     1.075688811878   118.52352731   180.08619839
 H     14  13  12     1.087351966936   109.64396577   359.25444212
 H     14  13  12     1.091008033884   110.26126661   118.67569481
 H     14  13  12     1.090901031258   110.19028618   239.74293024
 H     16  15  13     1.075621764376   120.76918985   359.83838935
 H     17  16  15     1.079546733588   118.97417486   179.95729610
 H     18  17  16     1.079286824713   120.67406498   180.01645634
 H     19  18  17     1.080167528673   120.14444480   179.98203313
 H     20  19  18     1.076605410538   117.64812470   179.92255817

---------------------------
INTERNAL COORDINATES (A.U.)
---------------------------
 C      0   0   0     0.000000000000     0.00000000     0.00000000
 N      1   0   0     2.749437996078     0.00000000     0.00000000
 C      2   1   0     2.657814892608   117.20387589     0.00000000
 C      3   2   1     2.643059382286   120.09449705     1.71329959
 C      4   3   2     2.612771135120   120.67668408   180.09032656
 C      5   4   3     2.613845095414   120.80750183     0.00000000
 C      6   5   4     2.615718565429   118.85738097     0.00000000
 C      7   6   5     2.610493002567   120.88239918     0.04212810
 C      2   1   3     2.530532675179   115.78695663   179.84700658
 C      9   2   1     2.756492533686   129.22677189   359.94795508
 O     10   9   2     2.319414830219   134.89120785     0.33839773
 C     10   9   2     2.756432052118    90.21487419   180.30335312
 N     12  10   9     2.530531002918   129.22599638   179.89819655
 C     13  12  10     2.749377729497   115.78404292     0.00000000
 C     13  12  10     2.657870839911   127.01315958   179.89119234
 C     15  13  12     2.637100151718   121.84574609     1.30834189
 C     16  15  13     2.610604270524   120.71414506   179.97440047
 C     17  16  15     2.615831338056   120.87897239   359.93857802
 C     18  17  16     2.613678589932   118.85526269     0.02687925
 C     19  18  17     2.612649004270   120.81020144     0.00000000
 C      9   2   1     2.769439405917   140.71682351   180.27718786
 O     21   9   2     2.307323332274   135.16056839   359.58074698
 H      1   2   3     2.061907514646   110.27445571   298.35052711
 H      1   2   3     2.061529825605   110.17159798    59.41264044
 H      1   2   3     2.054671478074   109.64709396   178.93028660
 H      4   3   2     2.034360197500   121.66768799     0.22081197
 H      5   4   3     2.041231733389   119.04164452   180.02111013
 H      6   5   4     2.039539228421   120.46178158   180.02498307
 H      7   6   5     2.040089555080   120.13802637   180.01918956
 H      8   7   6     2.032757259773   118.52352731   180.08619839
 H     14  13  12     2.054797428690   109.64396577   359.25444212
 H     14  13  12     2.061706393949   110.26126661   118.67569481
 H     14  13  12     2.061504188290   110.19028618   239.74293024
 H     16  15  13     2.032630558356   120.76918985   359.83838935
 H     17  16  15     2.040047675250   118.97417486   179.95729610
 H     18  17  16     2.039556518658   120.67406498   180.01645634
 H     19  18  17     2.041220807947   120.14444480   179.98203313
 H     20  19  18     2.034489380215   117.64812470   179.92255817

---------------------
BASIS SET INFORMATION
---------------------
There are 4 groups of distinct atoms

 Group   1 Type C   : 19s6p3d2f contracted to 5s4p3d2f pattern {88111/3111/111/11}
 Group   2 Type N   : 19s6p3d2f contracted to 5s4p3d2f pattern {88111/3111/111/11}
 Group   3 Type O   : 19s6p3d2f contracted to 5s4p3d2f pattern {88111/3111/111/11}
 Group   4 Type H   : 5s2p1d contracted to 3s2p1d pattern {311/11/1}

Atom   0C    basis set group =>   1
Atom   1N    basis set group =>   2
Atom   2C    basis set group =>   1
Atom   3C    basis set group =>   1
Atom   4C    basis set group =>   1
Atom   5C    basis set group =>   1
Atom   6C    basis set group =>   1
Atom   7C    basis set group =>   1
Atom   8C    basis set group =>   1
Atom   9C    basis set group =>   1
Atom  10O    basis set group =>   3
Atom  11C    basis set group =>   1
Atom  12N    basis set group =>   2
Atom  13C    basis set group =>   1
Atom  14C    basis set group =>   1
Atom  15C    basis set group =>   1
Atom  16C    basis set group =>   1
Atom  17C    basis set group =>   1
Atom  18C    basis set group =>   1
Atom  19C    basis set group =>   1
Atom  20C    basis set group =>   1
Atom  21O    basis set group =>   3
Atom  22H    basis set group =>   4
Atom  23H    basis set group =>   4
Atom  24H    basis set group =>   4
Atom  25H    basis set group =>   4
Atom  26H    basis set group =>   4
Atom  27H    basis set group =>   4
Atom  28H    basis set group =>   4
Atom  29H    basis set group =>   4
Atom  30H    basis set group =>   4
Atom  31H    basis set group =>   4
Atom  32H    basis set group =>   4
Atom  33H    basis set group =>   4
Atom  34H    basis set group =>   4
Atom  35H    basis set group =>   4
Atom  36H    basis set group =>   4
Atom  37H    basis set group =>   4
---------------------------------
AUXILIARY/J BASIS SET INFORMATION
---------------------------------
There are 4 groups of distinct atoms

 Group   1 Type C   : 10s7p5d2f1g contracted to 10s7p5d2f1g pattern {1111111111/1111111/11111/11/1}
 Group   2 Type N   : 10s7p5d2f1g contracted to 10s7p5d2f1g pattern {1111111111/1111111/11111/11/1}
 Group   3 Type O   : 10s7p5d2f1g contracted to 10s7p5d2f1g pattern {1111111111/1111111/11111/11/1}
 Group   4 Type H   : 4s3p2d1f contracted to 4s3p2d1f pattern {1111/111/11/1}

Atom   0C    basis set group =>   1
Atom   1N    basis set group =>   2
Atom   2C    basis set group =>   1
Atom   3C    basis set group =>   1
Atom   4C    basis set group =>   1
Atom   5C    basis set group =>   1
Atom   6C    basis set group =>   1
Atom   7C    basis set group =>   1
Atom   8C    basis set group =>   1
Atom   9C    basis set group =>   1
Atom  10O    basis set group =>   3
Atom  11C    basis set group =>   1
Atom  12N    basis set group =>   2
Atom  13C    basis set group =>   1
Atom  14C    basis set group =>   1
Atom  15C    basis set group =>   1
Atom  16C    basis set group =>   1
Atom  17C    basis set group =>   1
Atom  18C    basis set group =>   1
Atom  19C    basis set group =>   1
Atom  20C    basis set group =>   1
Atom  21O    basis set group =>   3
Atom  22H    basis set group =>   4
Atom  23H    basis set group =>   4
Atom  24H    basis set group =>   4
Atom  25H    basis set group =>   4
Atom  26H    basis set group =>   4
Atom  27H    basis set group =>   4
Atom  28H    basis set group =>   4
Atom  29H    basis set group =>   4
Atom  30H    basis set group =>   4
Atom  31H    basis set group =>   4
Atom  32H    basis set group =>   4
Atom  33H    basis set group =>   4
Atom  34H    basis set group =>   4
Atom  35H    basis set group =>   4
Atom  36H    basis set group =>   4
Atom  37H    basis set group =>   4
---------------------------------
AUXILIARY/C BASIS SET INFORMATION
---------------------------------
There are 4 groups of distinct atoms

 Group   1 Type C   : 9s7p6d4f2g contracted to 9s7p6d4f2g pattern {111111111/1111111/111111/1111/11}
 Group   2 Type N   : 9s7p6d4f2g contracted to 9s7p6d4f2g pattern {111111111/1111111/111111/1111/11}
 Group   3 Type O   : 9s7p6d4f2g contracted to 9s7p6d4f2g pattern {111111111/1111111/111111/1111/11}
 Group   4 Type H   : 4s3p2d1f contracted to 4s3p2d1f pattern {1111/111/11/1}

Atom   0C    basis set group =>   1
Atom   1N    basis set group =>   2
Atom   2C    basis set group =>   1
Atom   3C    basis set group =>   1
Atom   4C    basis set group =>   1
Atom   5C    basis set group =>   1
Atom   6C    basis set group =>   1
Atom   7C    basis set group =>   1
Atom   8C    basis set group =>   1
Atom   9C    basis set group =>   1
Atom  10O    basis set group =>   3
Atom  11C    basis set group =>   1
Atom  12N    basis set group =>   2
Atom  13C    basis set group =>   1
Atom  14C    basis set group =>   1
Atom  15C    basis set group =>   1
Atom  16C    basis set group =>   1
Atom  17C    basis set group =>   1
Atom  18C    basis set group =>   1
Atom  19C    basis set group =>   1
Atom  20C    basis set group =>   1
Atom  21O    basis set group =>   3
Atom  22H    basis set group =>   4
Atom  23H    basis set group =>   4
Atom  24H    basis set group =>   4
Atom  25H    basis set group =>   4
Atom  26H    basis set group =>   4
Atom  27H    basis set group =>   4
Atom  28H    basis set group =>   4
Atom  29H    basis set group =>   4
Atom  30H    basis set group =>   4
Atom  31H    basis set group =>   4
Atom  32H    basis set group =>   4
Atom  33H    basis set group =>   4
Atom  34H    basis set group =>   4
Atom  35H    basis set group =>   4
Atom  36H    basis set group =>   4
Atom  37H    basis set group =>   4


           ************************************************************
           *        Program running with 4 parallel MPI-processes     *
           *              working on a common directory               *
           ************************************************************
------------------------------------------------------------------------------
                           ORCA GTO INTEGRAL CALCULATION
                           -- RI-GTO INTEGRALS CHOSEN --
------------------------------------------------------------------------------
------------------------------------------------------------------------------
                   ___                                                        
                  /   \      - P O W E R E D   B Y -                         
                 /     \                                                     
                 |  |  |   _    _      __       _____    __    __             
                 |  |  |  | |  | |    /  \     |  _  \  |  |  /  |          
                  \  \/   | |  | |   /    \    | | | |  |  | /  /          
                 / \  \   | |__| |  /  /\  \   | |_| |  |  |/  /          
                |  |  |   |  __  | /  /__\  \  |    /   |      \           
                |  |  |   | |  | | |   __   |  |    \   |  |\   \          
                \     /   | |  | | |  |  |  |  | |\  \  |  | \   \       
                 \___/    |_|  |_| |__|  |__|  |_| \__\ |__|  \__/        
                                                                              
                      - O R C A' S   B I G   F R I E N D -                    
                                      &                                       
                       - I N T E G R A L  F E E D E R -                       
                                                                              
 v1 FN, 2020, v2 2021                                                         
------------------------------------------------------------------------------


Reading SHARK input file optpbed3-b2gp-plyp-train-14.SHARKINP.tmp ... ok
----------------------
SHARK INTEGRAL PACKAGE
----------------------

Number of atoms                             ...     38
Number of basis functions                   ...   1368
Number of shells                            ...    536
Maximum angular momentum                    ...      3
Integral batch strategy                     ... SHARK/LIBINT Hybrid
RI-J (if used) integral strategy            ... SPLIT-RIJ (Revised 2003 algorithm where possible)
Printlevel                                  ...      1
Contraction scheme used                     ... PARTIAL GENERAL contraction
Coulomb Range Separation                    ... NOT USED
Exchange Range Separation                   ... NOT USED
Finite Nucleus Model                        ... NOT USED
Auxiliary Coulomb fitting basis             ... AVAILABLE
   # of basis functions in Aux-J            ...   2218
   # of shells in Aux-J                     ...    710
   Maximum angular momentum in Aux-J        ...      4
Auxiliary J/K fitting basis                 ... NOT available
Auxiliary Correlation fitting basis         ... AVAILABLE
   # of basis functions in Aux-C            ...   2812
   # of shells in Aux-C                     ...    776
   Maximum angular momentum in Aux-C        ...      4
Auxiliary 'external' fitting basis          ... NOT available
Integral threshold                          ...     2.500000e-11
Primitive cut-off                           ...     2.500000e-12
Primitive pair pre-selection threshold      ...     2.500000e-12

Calculating pre-screening integrals         ... done (  0.4 sec) Dimension = 536
Calculating pre-screening integrals (ORCA)  ... done (  0.7 sec) Dimension = 404
Organizing shell pair data                  ... done (  1.3 sec)
Shell pair information
Total number of shell pairs                 ...    143916
Shell pairs after pre-screening             ...     88616
Total number of primitive shell pairs       ...    187692
Primitive shell pairs kept                  ...    103748
          la=0 lb=0:  20176 shell pairs
          la=1 lb=0:  22749 shell pairs
          la=1 lb=1:   5610 shell pairs
          la=2 lb=0:  14864 shell pairs
          la=2 lb=1:   7384 shell pairs
          la=2 lb=2:   2514 shell pairs
          la=3 lb=0:   7896 shell pairs
          la=3 lb=1:   3986 shell pairs
          la=3 lb=2:   2681 shell pairs
          la=3 lb=3:    756 shell pairs

Calculating one electron integrals          ... done (  0.3 sec)
Calculating RI/J V-Matrix + Cholesky decomp.... done (  0.4 sec)
Calculating RI/C V-Matrix + Cholesky decomp.... done (  0.7 sec)
Calculating Nuclear repulsion               ... done (  0.0 sec) ENN=   1662.923008179641 Eh

SHARK setup successfully completed in   5.2 seconds

Maximum memory used throughout the entire GTOINT-calculation: 140.9 MB


           ************************************************************
           *        Program running with 4 parallel MPI-processes     *
           *              working on a common directory               *
           ************************************************************
-------------------------------------------------------------------------------
                                 ORCA SCF
-------------------------------------------------------------------------------

------------
SCF SETTINGS
------------
Hamiltonian:
 Density Functional     Method          .... DFT(GTOs)
 Exchange Functional    Exchange        .... PBE
   PBE kappa parameter   XKappa         ....  0.804000
   PBE mue parameter    XMuePBE         ....  0.219520
 Correlation Functional Correlation     .... PBE
   PBE beta parameter  CBetaPBE         ....  0.066725
 LDA part of GGA corr.  LDAOpt          .... PW91-LDA
 Gradients option       PostSCFGGA      .... off
 Hybrid DFT is turned on
   Fraction HF Exchange ScalHFX         ....  0.250000
   Scaling of DF-GGA-X  ScalDFX         ....  0.750000
   Scaling of DF-GGA-C  ScalDFC         ....  1.000000
   Scaling of DF-LDA-C  ScalLDAC        ....  1.000000
   Perturbative correction              ....  0.000000
   Density functional embedding theory  .... OFF
   NL short-range parameter             ....  6.900000
 RI-approximation to the Coulomb term is turned on
   Number of AuxJ basis functions       .... 2218
   RIJ-COSX (HFX calculated with COS-X)).... on


General Settings:
 Integral files         IntName         .... optpbed3-b2gp-plyp-train-14
 Hartree-Fock type      HFTyp           .... RHF
 Total Charge           Charge          ....    0
 Multiplicity           Mult            ....    1
 Number of Electrons    NEL             ....  154
 Basis Dimension        Dim             .... 1236
 Nuclear Repulsion      ENuc            ....   1662.9230081796 Eh

Convergence Acceleration:
 DIIS                   CNVDIIS         .... on
   Start iteration      DIISMaxIt       ....    12
   Startup error        DIISStart       ....  0.200000
   # of expansion vecs  DIISMaxEq       ....     5
   Bias factor          DIISBfac        ....   1.050
   Max. coefficient     DIISMaxC        ....  10.000
 Trust-Rad. Augm. Hess. CNVTRAH         .... auto
   Auto Start mean grad. ratio tolernc. ....  1.125000
   Auto Start start iteration           ....    20
   Auto Start num. interpolation iter.  ....    10
   Max. Number of Micro iterations      ....    16
   Max. Number of Macro iterations      .... Maxiter - #DIIS iter
   Number of Davidson start vectors     ....     2
   Converg. threshold I  (grad. norm)   ....   1.000e-05
   Converg. threshold II (energy diff.) ....   1.000e-08
   Grad. Scal. Fac. for Micro threshold ....   0.100
   Minimum threshold for Micro iter.    ....   0.010
   NR start threshold (gradient norm)   ....   0.001
   Initial trust radius                 ....   0.400
   Minimum AH scaling param. (alpha)    ....   1.000
   Maximum AH scaling param. (alpha)    .... 1000.000
   Orbital update algorithm             .... Taylor
   White noise on init. David. guess    .... on
   Maximum white noise                  ....   0.010
   Quad. conv. algorithm                .... NR
 SOSCF                  CNVSOSCF        .... on
   Start iteration      SOSCFMaxIt      ....   150
   Startup grad/error   SOSCFStart      ....  0.003300
 Level Shifting         CNVShift        .... on
   Level shift para.    LevelShift      ....    0.2500
   Turn off err/grad.   ShiftErr        ....    0.0010
 Zerner damping         CNVZerner       .... off
 Static damping         CNVDamp         .... on
   Fraction old density DampFac         ....    0.7000
   Max. Damping (<1)    DampMax         ....    0.9800
   Min. Damping (>=0)   DampMin         ....    0.0000
   Turn off err/grad.   DampErr         ....    0.1000
 Fernandez-Rico         CNVRico         .... off

SCF Procedure:
 Maximum # iterations   MaxIter         ....   125
 SCF integral mode      SCFMode         .... Direct
   Integral package                     .... SHARK and LIBINT hybrid scheme
 Reset frequency        DirectResetFreq ....    20
 Integral Threshold     Thresh          ....  2.500e-11 Eh
 Primitive CutOff       TCut            ....  2.500e-12 Eh

Convergence Tolerance:
 Convergence Check Mode ConvCheckMode   .... Total+1el-Energy
 Convergence forced     ConvForced      .... 0
 Energy Change          TolE            ....  1.000e-08 Eh
 1-El. energy change                    ....  1.000e-05 Eh
 Orbital Gradient       TolG            ....  1.000e-05
 Orbital Rotation angle TolX            ....  1.000e-05
 DIIS Error             TolErr          ....  5.000e-07


Diagonalization of the overlap matrix:
Smallest eigenvalue                        ... 3.171e-07
Time for diagonalization                   ...    0.385 sec
Threshold for overlap eigenvalues          ... 1.000e-08
Number of eigenvalues below threshold      ... 0
Time for construction of square roots      ...    0.258 sec
Total time needed                          ...    0.650 sec

Time for model grid setup =    0.957 sec

------------------------------
INITIAL GUESS: MODEL POTENTIAL
------------------------------
Loading Hartree-Fock densities                     ... done
Calculating cut-offs                               ... done
Initializing the effective Hamiltonian             ... done
Setting up the integral package (SHARK)            ... done
Starting the Coulomb interaction                   ... done (   3.4 sec)
Reading the grid                                   ... done
Mapping shells                                     ... done
Starting the XC term evaluation                    ... done (   2.3 sec)
  promolecular density results
     # of electrons  =    153.988705563
     EX              =   -126.302339967
     EC              =     -5.191585745
     EX+EC           =   -131.493925712
Transforming the Hamiltonian                       ... done (   0.2 sec)
Diagonalizing the Hamiltonian                      ... done (   0.4 sec)
Back transforming the eigenvectors                 ... done (   0.1 sec)
Now organizing SCF variables                       ... done
                      ------------------
                      INITIAL GUESS DONE (   7.5 sec)
                      ------------------
-------------------
DFT GRID GENERATION
-------------------

General Integration Accuracy     IntAcc      ... 4.388
Radial Grid Type                 RadialGrid  ... OptM3 with GC (2021)
Angular Grid (max. ang.)         AngularGrid ... 4 (Lebedev-302)
Angular grid pruning method      GridPruning ... 4 (adaptive)
Weight generation scheme         WeightScheme... Becke
Basis function cutoff            BFCut       ... 1.0000e-11
Integration weight cutoff        WCut        ... 1.0000e-14
Angular grids for H and He will be reduced by one unit
Partially contracted basis set               ... off
Rotationally invariant grid construction     ... off

Total number of grid points                  ...   187628
Total number of batches                      ...     2950
Average number of points per batch           ...       63
Average number of grid points per atom       ...     4938
Time for grid setup =    3.023 sec

--------------------
COSX GRID GENERATION
--------------------

GRIDX 1
-------
General Integration Accuracy     IntAcc      ... 3.816
Radial Grid Type                 RadialGrid  ... OptM3 with GC (2021)
Angular Grid (max. ang.)         AngularGrid ... 1 (Lebedev-50)
Angular grid pruning method      GridPruning ... 4 (adaptive)
Weight generation scheme         WeightScheme... Becke
Basis function cutoff            BFCut       ... 1.0000e-11
Integration weight cutoff        WCut        ... 1.0000e-14
Angular grids for H and He will be reduced by one unit
Partially contracted basis set               ... on
Rotationally invariant grid construction     ... off

Total number of grid points                  ...    23882
Total number of batches                      ...      397
Average number of points per batch           ...       60
Average number of grid points per atom       ...      628
UseSFitting                                  ... on

GRIDX 2
-------
General Integration Accuracy     IntAcc      ... 4.020
Radial Grid Type                 RadialGrid  ... OptM3 with GC (2021)
Angular Grid (max. ang.)         AngularGrid ... 2 (Lebedev-110)
Angular grid pruning method      GridPruning ... 4 (adaptive)
Weight generation scheme         WeightScheme... Becke
Basis function cutoff            BFCut       ... 1.0000e-11
Integration weight cutoff        WCut        ... 1.0000e-14
Angular grids for H and He will be reduced by one unit
Partially contracted basis set               ... on
Rotationally invariant grid construction     ... off

Total number of grid points                  ...    56213
Total number of batches                      ...      896
Average number of points per batch           ...       62
Average number of grid points per atom       ...     1479
UseSFitting                                  ... on

GRIDX 3
-------
General Integration Accuracy     IntAcc      ... 4.338
Radial Grid Type                 RadialGrid  ... OptM3 with GC (2021)
Angular Grid (max. ang.)         AngularGrid ... 3 (Lebedev-194)
Angular grid pruning method      GridPruning ... 4 (adaptive)
Weight generation scheme         WeightScheme... Becke
Basis function cutoff            BFCut       ... 1.0000e-11
Integration weight cutoff        WCut        ... 1.0000e-14
Angular grids for H and He will be reduced by one unit
Partially contracted basis set               ... on
Rotationally invariant grid construction     ... off

Total number of grid points                  ...   121372
Total number of batches                      ...     1915
Average number of points per batch           ...       63
Average number of grid points per atom       ...     3194
UseSFitting                                  ... on

Time for X-Grid setup             =    8.259 sec


--------------------
CPCM SOLVATION MODEL
--------------------
CPCM parameters:
  Epsilon                                         ...      37.2190
  Refrac                                          ...       1.4305
  Rsolv                                           ...       1.3000
  Surface type                                    ... GAUSSIAN VDW
  Epsilon function type                           ...         CPCM
Solvent:                                     ... N,N-DIMETHYLFORMAMIDE
SMD-CDS solvent descriptors:
  Soln                                       ...    1.4305
  Soln25                                     ...    1.4280
  Sola                                       ...    0.0000
  Solb                                       ...    0.7400
  Solg                                       ...   49.5600
  Solc                                       ...    0.0000
  Solh                                       ...    0.0000
Radii:
 Radius for C  used is    3.4960 Bohr (=   1.8500 Ang.)
 Radius for N  used is    3.5716 Bohr (=   1.8900 Ang.)
 Radius for O  used is    4.3350 Bohr (=   2.2940 Ang.)
 Radius for H  used is    2.2677 Bohr (=   1.2000 Ang.)
Calculating surface                               ...        done! (  0.0s)
GEPOL surface points                              ...         1984
GEPOL Volume                                      ...    2200.0410
GEPOL Surface-area                                ...    1151.8095
Calculating surface distance matrix               ...        done! (  0.1s)
Performing Cholesky decomposition & store         ...        done! (  0.2s)
Overall time for CPCM initialization              ...                 0.3s
 re-compute Schwartz prescreening matrix in partically contracted basis (1) ...done (   0.291 sec)
--------------
SCF ITERATIONS
--------------
ITER       Energy         Delta-E        Max-DP      RMS-DP      [F,P]     Damp
               ***  Starting incremental Fock matrix formation  ***
  0   -954.2121371068   0.000000000000 0.60128190  0.00183103  0.2974437 0.7000
  1   -954.4311613447  -0.219024237900 0.41913599  0.00132538  0.1213435 0.7000
                               ***Turning on DIIS***
  2   -954.5219223010  -0.090760956255 1.00741787  0.00273327  0.0403780 0.0000
  3   -954.6705178078  -0.148595506887 0.17628717  0.00073462  0.0534300 0.0000
  4   -954.6972699875  -0.026752179694 0.04764263  0.00019593  0.0216970 0.0000
  5   -954.6992117578  -0.001941770263 0.02930432  0.00011516  0.0086961 0.0000
                      *** Initiating the SOSCF procedure ***
                           *** Shutting down DIIS ***
                      *** Re-Reading the Fockian *** 
                      *** Removing any level shift *** 
ITER      Energy       Delta-E        Grad      Rot      Max-DP    RMS-DP
  6   -954.69937312  -0.0001613614  0.000546  0.000546  0.038529  0.000064
               *** Restarting incremental Fock matrix formation ***
  7   -954.69940267  -0.0000295478  0.000280  0.001481  0.047503  0.000457
  8   -954.69940533  -0.0000026640  0.000140  0.000604  0.017165  0.000153
  9   -954.69940640  -0.0000010651  0.000072  0.000345  0.106620  0.000239
 10   -954.69940682  -0.0000004270  0.000018  0.000055  0.074445  0.000143
 11   -954.69940680   0.0000000188  0.000021  0.000054  0.065583  0.000148
 12   -954.69940680   0.0000000006  0.000009  0.000027  0.095242  0.000193
 13   -954.69940679   0.0000000086  0.000007  0.000020  0.018207  0.000081
 14   -954.69940679   0.0000000047  0.000003  0.000013  0.021467  0.000118
 15   -954.69940677   0.0000000192  0.000003  0.000005  0.055134  0.000108
                  ***Gradient check signals convergence***
              ***Rediagonalizing the Fockian in SOSCF/NRSCF***

               *****************************************************
               *                     SUCCESS                       *
               *           SCF CONVERGED AFTER  16 CYCLES          *
               *****************************************************

Old exchange energy                            =    -32.199769713 Eh
New exchange energy                            =    -32.199782876 Eh
Exchange energy change after final integration =     -0.000013163 Eh
Total energy after final integration           =   -954.699419910 Eh
Final COS-X integration done in                =   185.349 sec

SMD CDS free energy correction energy :                -4.02302     Kcal/mol
Total Energy after SMD CDS correction =              -954.705830993 Eh

----------------
TOTAL SCF ENERGY
----------------

Total Energy       :         -954.70583099 Eh          -25978.86640 eV

Components:
Nuclear Repulsion  :         1662.92300818 Eh           45250.43554 eV
Electronic Energy  :        -2617.62883917 Eh          -71229.30194 eV
One Electron Energy:        -4598.88382392 Eh         -125141.99094 eV
Two Electron Energy:         1981.25498474 Eh           53912.68900 eV
Max COSX asymmetry :            0.00003744 Eh               0.00102 eV
CPCM Dielectric    :           -0.02099897 Eh              -0.57141 eV
SMD CDS (Gcds)     :           -0.00641108 Eh              -0.17445 eV

Virial components:
Potential Energy   :        -1904.13246516 Eh          -51814.07855 eV
Kinetic Energy     :          949.42663417 Eh           25835.21215 eV
Virial Ratio       :            2.00556041


DFT components:
N(Alpha)           :       77.000045516612 electrons
N(Beta)            :       77.000045516612 electrons
N(Total)           :      154.000091033224 electrons
E(X)               :      -96.389551268104 Eh       
E(C)               :       -5.190879117780 Eh       
E(XC)              :     -101.580430385884 Eh       
DFET-embed. en.    :        0.000000000000 Eh       
CPCM Solvation Model Properties:
Surface-charge          :           -0.05452164
Charge-correction       :            0.00026051 Eh               0.00709 eV
Free-energy (cav+disp)  :           -0.00641108 Eh              -0.17445 eV

---------------
SCF CONVERGENCE
---------------

  Last Energy change         ...    2.3532e-08  Tolerance :   1.0000e-08
  Last MAX-Density change    ...    3.9968e-15  Tolerance :   1.0000e-07
  Last RMS-Density change    ...    1.8185e-17  Tolerance :   5.0000e-09
  Last Orbital Gradient      ...    2.4269e-06  Tolerance :   1.0000e-05
  Last Orbital Rotation      ...    1.7211e-05  Tolerance :   1.0000e-05

             **** THE GBW FILE WAS UPDATED (optpbed3-b2gp-plyp-train-14.gbw) ****
             **** DENSITY optpbed3-b2gp-plyp-train-14.scfp WAS UPDATED ****
             **** ENERGY FILE WAS UPDATED (optpbed3-b2gp-plyp-train-14.en.tmp) ****
             **** THE GBW FILE WAS UPDATED (optpbed3-b2gp-plyp-train-14.gbw) ****
             **** DENSITY optpbed3-b2gp-plyp-train-14.scfp WAS UPDATED ****
----------------
ORBITAL ENERGIES
----------------

  NO   OCC          E(Eh)            E(eV) 
   0   2.0000     -19.183730      -522.0158 
   1   2.0000     -19.183442      -522.0080 
   2   2.0000     -14.465398      -393.6235 
   3   2.0000     -14.465393      -393.6233 
   4   2.0000     -10.321351      -280.8582 
   5   2.0000     -10.312244      -280.6104 
   6   2.0000     -10.301011      -280.3048 
   7   2.0000     -10.300986      -280.3041 
   8   2.0000     -10.281083      -279.7625 
   9   2.0000     -10.281078      -279.7624 
  10   2.0000     -10.245633      -278.7978 
  11   2.0000     -10.245617      -278.7974 
  12   2.0000     -10.230835      -278.3952 
  13   2.0000     -10.230826      -278.3949 
  14   2.0000     -10.228686      -278.3367 
  15   2.0000     -10.228657      -278.3359 
  16   2.0000     -10.227676      -278.3092 
  17   2.0000     -10.227670      -278.3090 
  18   2.0000     -10.224021      -278.2098 
  19   2.0000     -10.224009      -278.2094 
  20   2.0000     -10.222118      -278.1580 
  21   2.0000     -10.222099      -278.1575 
  22   2.0000      -1.074808       -29.2470 
  23   2.0000      -1.060150       -28.8482 
  24   2.0000      -1.023428       -27.8489 
  25   2.0000      -1.019913       -27.7532 
  26   2.0000      -0.907235       -24.6871 
  27   2.0000      -0.887460       -24.1490 
  28   2.0000      -0.879404       -23.9298 
  29   2.0000      -0.787926       -21.4405 
  30   2.0000      -0.781872       -21.2758 
  31   2.0000      -0.781360       -21.2619 
  32   2.0000      -0.777221       -21.1493 
  33   2.0000      -0.746000       -20.2997 
  34   2.0000      -0.727522       -19.7969 
  35   2.0000      -0.684370       -18.6226 
  36   2.0000      -0.662448       -18.0261 
  37   2.0000      -0.625602       -17.0235 
  38   2.0000      -0.624448       -16.9921 
[...]
   Time for Sigma-Completion:     0.292
   Time for building 10 sigma-vectors
   Data Preparation Phase         ...     0.01 sec
   Transformed RI Coulomb         ...     1.04 sec
   Transformed RI-exchange        ...   687.30 sec
   (ab|v) reading and digestion   ...   643.19 sec
   Final sigma-completion         ...     0.01 sec
   Done building sigma-vectors             Size of expansion space: 60
   Lowest Energy          :     0.141612055917
   Maximum Energy change  :     0.000424874429 (vector 9)
   Maximum residual norm  :     0.000072073719

                       ****Iteration   10****
              <<< Entering MO-section for Build Sigma(Double) >>>
   Forming the XC and CPCM contribution:
   Time for densities:            0.363
   Time for XC-Integration:      26.664
   Time for LR-CPCM terms:       15.512
   Time for Sigma-Completion:     0.302
   Time for building 10 sigma-vectors
   Data Preparation Phase         ...     0.01 sec
   Transformed RI Coulomb         ...     1.05 sec
   Transformed RI-exchange        ...   704.00 sec
   (ab|v) reading and digestion   ...   671.63 sec
   Final sigma-completion         ...     0.01 sec
   Done building sigma-vectors             Size of expansion space: 70
   Lowest Energy          :     0.141612055889
   Maximum Energy change  :     0.000073091868 (vector 9)
   Maximum residual norm  :     0.000007004713
   Rebuilding the expansion space

                       ****Iteration   11****
              <<< Entering MO-section for Build Sigma(Double) >>>
   Forming the XC and CPCM contribution:
   Time for densities:            0.693
   Time for XC-Integration:      51.486
   Time for LR-CPCM terms:       24.312
   Time for Sigma-Completion:     0.581
   Time for building 20 sigma-vectors
   Data Preparation Phase         ...     0.02 sec
   Transformed RI Coulomb         ...     1.76 sec
   Transformed RI-exchange        ...  1381.48 sec
   (ab|v) reading and digestion   ...  1320.62 sec
   Final sigma-completion         ...     0.02 sec
   Done building sigma-vectors             Size of expansion space: 20
   Lowest Energy          :     0.141612055877
   Maximum Energy change  :     0.000008548195 (vector 9)
   Maximum residual norm  :     0.000001462976

                       ****Iteration   12****
              <<< Entering MO-section for Build Sigma(Double) >>>
   Forming the XC and CPCM contribution:
   Time for densities:            0.355
   Time for XC-Integration:      27.273
   Time for LR-CPCM terms:       15.654
   Time for Sigma-Completion:     0.299
   Time for building 10 sigma-vectors
   Data Preparation Phase         ...     0.01 sec
   Transformed RI Coulomb         ...     1.03 sec
   Transformed RI-exchange        ...   686.87 sec
   (ab|v) reading and digestion   ...   660.65 sec
   Final sigma-completion         ...     0.01 sec
   Done building sigma-vectors             Size of expansion space: 30
   Lowest Energy          :     0.141612055877
   Maximum Energy change  :     0.000002720352 (vector 9)
   Maximum residual norm  :     0.000000474435

      *** CONVERGENCE OF RESIDUAL NORM REACHED ***

Storing the converged CI vectors               ... optpbed3-b2gp-plyp-train-14_job2.cis1

                 *** DAVIDSON DONE ***

Total time for solving the CIS problem: 10532.076sec

------------------
DOUBLES CORRECTION (Double precision version)
------------------

The (D) correction will be scaled by  0.3600
Doing v(i,a)*T(i,a) terms (RI)                    ... ok
Doing u(i,j,a,b) terms for state   0              ... ok
Doing u(i,j,a,b) terms for state   1              ... ok
Doing u(i,j,a,b) terms for state   2              ... ok
Doing u(i,j,a,b) terms for state   3              ... ok
Doing u(i,j,a,b) terms for state   4              ... ok
Doing u(i,j,a,b) terms for state   5              ... ok
Doing u(i,j,a,b) terms for state   6              ... ok
Doing u(i,j,a,b) terms for state   7              ... ok
Doing u(i,j,a,b) terms for state   8              ... ok
Doing u(i,j,a,b) terms for state   9              ... ok

Contributions to the (D) correction(s) (in eV)

STATE  Final   Init.   Total   v(ext)   v(int)  v(3)    u
       omega   omega     (D)                             
-----------------------------------------------------------------------------
   0   3.334   3.853  -0.519   0.765   1.357  -0.089  -2.553
   1   4.564   4.906  -0.342   0.084   1.379  -0.005  -1.801
   2   3.937   5.256  -1.319   0.815   1.098  -0.025  -3.208
   3   4.659   5.264  -0.605   0.803   1.238  -0.070  -2.576
   4   4.765   5.349  -0.584   0.487   1.263  -0.029  -2.305
   5   4.791   5.414  -0.622   0.552   1.245  -0.031  -2.389
   6   5.134   5.555  -0.420   0.354   1.317  -0.032  -2.059
   7   5.241   5.650  -0.409   0.215   1.319  -0.018  -1.925
   8   5.305   5.686  -0.382   0.060   1.363  -0.003  -1.801
   9   5.189   5.700  -0.512   0.547   1.257  -0.048  -2.268

(D)-timings
 V(i,a)*T(i,a) terms           ...  1265.760 sec
 U(i,j,a,b) 3-internal         ...    19.628 sec
 U(i,j,a,b) 3-external         ...   501.324 sec
 U(i,j,a,b) pair terms         ...   773.268 sec
 Total measured time           ...  6432.513 sec

 Time for (ab|v) I/O           ...   113.107 sec


------------------------------------
TD-DFT/TDA EXCITED STATES (SINGLETS)
------------------------------------

the weight of the individual excitations are printed if larger than 1.0e-02

STATE  1:  E=   0.122523 au      3.334 eV    26890.8 cm**-1 <S**2> =   0.000000
    76a ->  77a  :     0.923969 (c= -0.96123311)

STATE  2:  E=   0.167707 au      4.564 eV    36807.4 cm**-1 <S**2> =   0.000000
    76a ->  78a  :     0.685321 (c=  0.82784123)
    76a ->  80a  :     0.025326 (c=  0.15914287)
    76a ->  82a  :     0.124825 (c= -0.35330584)
    76a ->  84a  :     0.030278 (c= -0.17400595)
    76a ->  90a  :     0.034623 (c=  0.18607307)
    76a -> 110a  :     0.019885 (c= -0.14101408)

STATE  3:  E=   0.144668 au      3.937 eV    31751.1 cm**-1 <S**2> =   0.000000
    71a ->  77a  :     0.667152 (c= -0.81679375)
    71a ->  95a  :     0.027278 (c= -0.16516105)
    71a ->  96a  :     0.012544 (c= -0.11200054)
    74a ->  77a  :     0.178253 (c= -0.42219963)

STATE  4:  E=   0.171215 au      4.659 eV    37577.4 cm**-1 <S**2> =   0.000000
    71a ->  91a  :     0.032450 (c= -0.18013991)
    71a ->  93a  :     0.255875 (c= -0.50584124)
    74a ->  93a  :     0.025678 (c= -0.16024439)
    76a ->  89a  :     0.031725 (c=  0.17811561)
    76a ->  91a  :     0.080046 (c=  0.28292424)
    76a ->  93a  :     0.440027 (c=  0.66334561)

STATE  5:  E=   0.175113 au      4.765 eV    38432.9 cm**-1 <S**2> =   0.000000
    71a ->  93a  :     0.012873 (c= -0.11346034)
    72a ->  85a  :     0.018945 (c=  0.13763990)
    73a ->  77a  :     0.067875 (c= -0.26052825)
    73a ->  95a  :     0.011032 (c=  0.10503419)
    74a ->  85a  :     0.014008 (c= -0.11835563)
    74a ->  89a  :     0.029084 (c= -0.17053981)
    75a ->  77a  :     0.010467 (c=  0.10230675)
    75a ->  78a  :     0.016569 (c= -0.12872189)
    75a ->  84a  :     0.028534 (c=  0.16891993)
    75a ->  86a  :     0.046561 (c=  0.21578026)
    76a ->  79a  :     0.140864 (c= -0.37531861)
    76a ->  83a  :     0.026430 (c=  0.16257268)
    76a ->  85a  :     0.412918 (c=  0.64258668)
    76a ->  86a  :     0.014847 (c=  0.12184626)

STATE  6:  E=   0.176076 au      4.791 eV    38644.1 cm**-1 <S**2> =   0.000000
    71a ->  77a  :     0.054589 (c= -0.23364389)
    72a ->  77a  :     0.010074 (c=  0.10037111)
    72a ->  84a  :     0.013675 (c= -0.11693829)
    72a ->  86a  :     0.013283 (c= -0.11525143)
    73a ->  87a  :     0.020936 (c=  0.14469190)
    73a ->  89a  :     0.045197 (c=  0.21259695)
    74a ->  77a  :     0.059126 (c=  0.24315744)
    74a ->  95a  :     0.012784 (c= -0.11306797)
    75a ->  85a  :     0.109154 (c= -0.33038519)
    76a ->  80a  :     0.015822 (c= -0.12578529)
    76a ->  82a  :     0.022522 (c= -0.15007251)
    76a ->  84a  :     0.138133 (c= -0.37166229)
    76a ->  86a  :     0.229568 (c= -0.47913219)
    76a ->  87a  :     0.016005 (c= -0.12651183)
    76a ->  88a  :     0.052578 (c=  0.22929922)
    76a ->  90a  :     0.029668 (c= -0.17224519)

STATE  7:  E=   0.188683 au      5.134 eV    41411.2 cm**-1 <S**2> =   0.000000
    71a ->  93a  :     0.029645 (c= -0.17217640)
    74a ->  85a  :     0.013554 (c= -0.11642286)
    75a ->  77a  :     0.070287 (c= -0.26511756)
    76a ->  81a  :     0.409283 (c= -0.63975256)
    76a ->  83a  :     0.069557 (c=  0.26373738)
    76a ->  85a  :     0.010962 (c= -0.10469834)
    76a ->  87a  :     0.178671 (c= -0.42269518)
    76a ->  89a  :     0.069297 (c= -0.26324365)

STATE  8:  E=   0.192621 au      5.241 eV    42275.4 cm**-1 <S**2> =   0.000000
    71a ->  93a  :     0.012067 (c= -0.10985190)
    72a ->  85a  :     0.013463 (c= -0.11602913)
    73a ->  77a  :     0.022424 (c=  0.14974670)
    75a ->  77a  :     0.040189 (c= -0.20047260)
    75a ->  78a  :     0.012390 (c= -0.11131050)
    76a ->  79a  :     0.403796 (c= -0.63544958)
    76a ->  81a  :     0.139465 (c=  0.37344975)
    76a ->  85a  :     0.041202 (c= -0.20298309)
    76a ->  89a  :     0.132433 (c= -0.36391305)
    76a ->  91a  :     0.013229 (c=  0.11501820)
    76a ->  92a  :     0.024915 (c= -0.15784348)

STATE  9:  E=   0.194937 au      5.305 eV    42783.8 cm**-1 <S**2> =   0.000000
    76a ->  78a  :     0.019157 (c=  0.13840709)
    76a ->  80a  :     0.770647 (c= -0.87786507)
    76a ->  82a  :     0.010467 (c= -0.10231040)
    76a ->  84a  :     0.011314 (c= -0.10636635)
    76a ->  86a  :     0.039549 (c=  0.19887038)
    76a ->  90a  :     0.023969 (c= -0.15482002)

STATE 10:  E=   0.190681 au      5.189 eV    41849.7 cm**-1 <S**2> =   0.000000
    71a ->  91a  :     0.027560 (c=  0.16601138)
    71a ->  93a  :     0.249538 (c=  0.49953737)
    72a ->  93a  :     0.011002 (c= -0.10488955)
    74a ->  93a  :     0.055166 (c=  0.23487342)
    75a ->  77a  :     0.014672 (c=  0.12112955)
    76a ->  79a  :     0.126839 (c= -0.35614498)
    76a ->  80a  :     0.011984 (c= -0.10947253)
    76a ->  81a  :     0.060858 (c= -0.24669442)
    76a ->  83a  :     0.031378 (c=  0.17713815)
    76a ->  89a  :     0.057753 (c=  0.24031804)
    76a ->  91a  :     0.052721 (c=  0.22961082)
    76a ->  92a  :     0.010894 (c= -0.10437199)
    76a ->  93a  :     0.140166 (c=  0.37438731)


-----------------------------
TD-DFT/TDA-EXCITATION SPECTRA
-----------------------------

Center of mass = (  0.0001, -0.0338, -0.0018)
Calculating the Dipole integrals                  ... done
Transforming integrals                            ... done
Calculating the Linear Momentum integrals         ... done
Transforming integrals                            ... done
Calculating angular momentum integrals            ... done
Transforming integrals                            ... done

-----------------------------------------------------------------------------
         ABSORPTION SPECTRUM VIA TRANSITION ELECTRIC DIPOLE MOMENTS
-----------------------------------------------------------------------------
State   Energy    Wavelength  fosc         T2        TX        TY        TZ  
        (cm-1)      (nm)                 (au**2)    (au)      (au)      (au) 
-----------------------------------------------------------------------------
   1   26890.8    371.9   0.956835430  11.71411  -3.40871   0.03472  -0.30591
   2   36807.4    271.7   0.020647483   0.18467   0.08983  -0.07492   0.41351
   3   31751.1    315.0   0.044742894   0.46392  -0.67960  -0.02648  -0.03698
   4   37577.4    266.1   0.107635664   0.94299  -0.03282   0.95724   0.15998
   5   38432.9    260.2   0.002581643   0.02211   0.08543   0.12170  -0.00205
   6   38644.1    258.8   0.021621077   0.18419  -0.38242  -0.05113   0.18798
   7   41411.2    241.5   0.074395277   0.59143  -0.01069   0.76022   0.11566
   8   42275.4    236.5   0.029321129   0.22833  -0.01602   0.47254   0.06918
   9   42783.8    233.7   0.001768824   0.01361   0.09618  -0.00015  -0.06603
  10   41849.7    239.0   0.072352614   0.56916   0.00228   0.74447   0.12215

-----------------------------------------------------------------------------
         ABSORPTION SPECTRUM VIA TRANSITION VELOCITY DIPOLE MOMENTS
-----------------------------------------------------------------------------
State   Energy    Wavelength   fosc        P2         PX        PY        PZ  
        (cm-1)      (nm)                 (au**2)     (au)      (au)      (au) 
-----------------------------------------------------------------------------
   1   26890.8    371.9   0.646029264   0.11873   0.34242  -0.00320   0.03829
   2   36807.4    271.7   0.003734547   0.00094  -0.02555   0.00318  -0.01662
   3   31751.1    315.0   0.048439310   0.01051   0.10233   0.00183   0.00607
   4   37577.4    266.1   0.000836290   0.00021   0.00252  -0.01424  -0.00238
   5   38432.9    260.2   0.000496413   0.00013  -0.00879   0.00726   0.00063
   6   38644.1    258.8   0.005087760   0.00134   0.03629   0.00267   0.00447
   7   41411.2    241.5   0.030686632   0.00869   0.00131  -0.09215  -0.01387
   8   42275.4    236.5   0.019779124   0.00571   0.00284  -0.07463  -0.01168
   9   42783.8    233.7   0.002741441   0.00080  -0.02311  -0.00986   0.01305
  10   41849.7    239.0   0.000646729   0.00018  -0.00302  -0.01325  -0.00057

-------------------------------------------------------------------
                             CD SPECTRUM
-------------------------------------------------------------------
State  Energy     Wavelength     R         MX        MY        MZ   
       (cm-1)       (nm)     (1e40*cgs)   (au)      (au)      (au)  
-------------------------------------------------------------------
   1   26890.8    371.9    -113.71907   0.13448   0.10371  -0.69821
   2   36807.4    271.7     15.58770  -0.03978  -0.00753   0.08723
   3   31751.1    315.0    100.16527  -0.30372   0.00972  -0.17079
   4   37577.4    266.1    232.95258  -0.01498   0.50143   0.08524
   5   38432.9    260.2     -2.52931   0.00864  -0.05075  -0.03578
   6   38644.1    258.8     15.74971   0.02601  -0.04280   0.21898
   7   41411.2    241.5     20.25355  -0.00469   0.05475   0.01110
   8   42275.4    236.5    -13.36991   0.01809  -0.05534  -0.02773
   9   42783.8    233.7    -18.64272  -0.23907  -0.03339   0.25071
  10   41849.7    239.0    -75.98602  -0.02620  -0.21552  -0.00549

-------------------------------------------------------------------
         CD SPECTRUM VIA TRANSITION VELOCITY DIPOLE MOMENTS        
-------------------------------------------------------------------
State  Energy     Wavelength     R         MX        MY        MZ   
       (cm-1)       (nm)     (1e40*cgs)   (au)      (au)      (au)  
-------------------------------------------------------------------
   1   26890.8    371.9     73.03231   0.13448   0.10371  -0.69821
   2   36807.4    271.7     -1.28640  -0.03978  -0.00753   0.08723
   3   31751.1    315.0    -104.60141  -0.30372   0.00972  -0.17079
   4   37577.4    266.1    -20.32265  -0.01498   0.50143   0.08524
   5   38432.9    260.2     -1.25759   0.00864  -0.05075  -0.03578
   6   38644.1    258.8      4.84014   0.02601  -0.04280   0.21898
   7   41411.2    241.5    -13.00688  -0.00469   0.05475   0.01110
   8   42275.4    236.5     11.02809   0.01809  -0.05534  -0.02773
   9   42783.8    233.7     22.07146  -0.23907  -0.03339   0.25071
  10   41849.7    239.0      7.26282  -0.02620  -0.21552  -0.00549

Total run time:    16975.780 sec

           *** ORCA-CIS/TD-DFT FINISHED WITHOUT ERROR ***

Maximum memory used throughout the entire CIS-calculation: 1844.3 MB

-----------------------
CIS/TD-DFT TOTAL ENERGY
-----------------------

    E(SCF)  =   -953.300764776 Eh
    DE(CIS) =      0.122523408 Eh (Root  1)
    ----------------------------- ---------
    E(tot)  =   -953.178241368 Eh



-------------------------------------------------------------------------------
                          DFT DISPERSION CORRECTION                            
                                                                               
                              DFTD3 V3.1  Rev 1                                
                          USING Becke-Johnson damping                          
-------------------------------------------------------------------------------
The B2GP-PLYP functional is recognized
Active option DFTDOPT                   ...         4   

molecular C6(AA) [au] = 16987.594081 


            DFT-D V3
 parameters
 s6 scaling factor         :     0.5600 
 a1 scaling factor         :     0.0000 
 s8 scaling factor         :     0.2597 
 a2 scaling factor         :     6.3332 
 ad hoc parameters k1-k3   :    16.0000     1.3333    -4.0000 

 Edisp/kcal,au: -18.019014943541  -0.028715125056 
 E6   /kcal   : -14.098419243 
 E8   /kcal   :  -3.920595700 
 % E8         :  21.758102274 

-------------------------   ----------------
Dispersion correction           -0.028715125
-------------------------   ----------------


-------------------------   --------------------
FINAL SINGLE POINT ENERGY      -953.206956492822
-------------------------   --------------------


                            ***************************************
                            *     ORCA property calculations      *
                            ***************************************


  WARNING: The energy has been calculated at the MP2 level but the densities
           used in the property calculations are still SCF densities
           MP2 response densities have not been calculated 
           use %mp2 Density relaxed end
           or  %mp2 Density unrelaxed end

                                    ---------------------
                                    Active property flags
                                    ---------------------
   (+) Dipole Moment


------------------------------------------------------------------------------
                       ORCA ELECTRIC PROPERTIES CALCULATION
------------------------------------------------------------------------------

Dipole Moment Calculation                       ... on
Quadrupole Moment Calculation                   ... off
Polarizability Calculation                      ... off
GBWName                                         ... optpbed3-b2gp-plyp-train-14_job2.gbw
Electron density                                ... optpbed3-b2gp-plyp-train-14_job2.scfp
The origin for moment calculation is the CENTER OF MASS  = ( 0.000119, -0.033850 -0.001816)

-------------
DIPOLE MOMENT
-------------
                                X             Y             Z
Electronic contribution:      0.05986       0.11483       0.07491
Nuclear contribution   :      0.01212      -0.40426      -0.12076
                        -----------------------------------------
Total Dipole Moment    :      0.07198      -0.28944      -0.04586
                        -----------------------------------------
Magnitude (a.u.)       :      0.30176
Magnitude (Debye)      :      0.76700



--------------------
Rotational spectrum 
--------------------
 
Rotational constants in cm-1:     0.017812     0.005362     0.004357 
Rotational constants in MHz :   533.984681   160.743975   130.620361 

 Dipole components along the rotational axes: 
x,y,z [a.u.] :     0.067383     0.294006    -0.008760 
x,y,z [Debye]:     0.171275     0.747305    -0.022266 

 

Timings for individual modules:

Sum of individual times         ...    20049.430 sec (= 334.157 min)
GTO integral calculation        ...        6.054 sec (=   0.101 min)   0.0 %
SCF iterations                  ...     1292.864 sec (=  21.548 min)   6.4 %
MP2 module                      ...     1771.987 sec (=  29.533 min)   8.8 %
CIS module                      ...    16978.525 sec (= 282.975 min)  84.7 %



                             ****ORCA TERMINATED NORMALLY****
TOTAL RUN TIME: 1 days 4 hours 48 minutes 27 seconds 263 msec
