
                                 *****************
                                 * O   R   C   A *
                                 *****************

                                            #,                                       
                                            ###                                      
                                            ####                                     
                                            #####                                    
                                            ######                                   
                                           ########,                                 
                                     ,,################,,,,,                         
                               ,,#################################,,                 
                          ,,##########################################,,             
                       ,#########################################, ''#####,          
                    ,#############################################,,   '####,        
                  ,##################################################,,,,####,       
                ,###########''''           ''''###############################       
              ,#####''   ,,,,##########,,,,          '''####'''          '####       
            ,##' ,,,,###########################,,,                        '##       
           ' ,,###''''                  '''############,,,                           
         ,,##''                                '''############,,,,        ,,,,,,###''
      ,#''                                            '''#######################'''  
     '                                                          ''''####''''         
             ,#######,   #######,   ,#######,      ##                                
            ,#'     '#,  ##    ##  ,#'     '#,    #''#        ######   ,####,        
            ##       ##  ##   ,#'  ##            #'  '#       #        #'  '#        
            ##       ##  #######   ##           ,######,      #####,   #    #        
            '#,     ,#'  ##    ##  '#,     ,#' ,#      #,         ##   #,  ,#        
             '#######'   ##     ##  '#######'  #'      '#     #####' # '####'        



                  #######################################################
                  #                        -***-                        #
                  #          Department of theory and spectroscopy      #
                  #    Directorship and core code : Frank Neese         #
                  #        Max Planck Institute fuer Kohlenforschung    #
                  #                Kaiser Wilhelm Platz 1               #
                  #                 D-45470 Muelheim/Ruhr               #
                  #                      Germany                        #
                  #                                                     #
                  #                  All rights reserved                #
                  #                        -***-                        #
                  #######################################################


                         Program Version 5.0.2 -  RELEASE  -


 With contributions from (in alphabetic order):
   Daniel Aravena         : Magnetic Suceptibility
   Michael Atanasov       : Ab Initio Ligand Field Theory (pilot matlab implementation)
   Alexander A. Auer      : GIAO ZORA, VPT2 properties, NMR spectrum
   Ute Becker             : Parallelization
   Giovanni Bistoni       : ED, misc. LED, open-shell LED, HFLD
   Martin Brehm           : Molecular dynamics
   Dmytro Bykov           : SCF Hessian
   Vijay G. Chilkuri      : MRCI spin determinant printing, contributions to CSF-ICE
   Dipayan Datta          : RHF DLPNO-CCSD density
   Achintya Kumar Dutta   : EOM-CC, STEOM-CC
   Dmitry Ganyushin       : Spin-Orbit,Spin-Spin,Magnetic field MRCI
   Miquel Garcia          : C-PCM and meta-GGA Hessian, CC/C-PCM, Gaussian charge scheme
   Yang Guo               : DLPNO-NEVPT2, F12-NEVPT2, CIM, IAO-localization
   Andreas Hansen         : Spin unrestricted coupled pair/coupled cluster methods
   Benjamin Helmich-Paris : MC-RPA, TRAH-SCF, COSX integrals
   Lee Huntington         : MR-EOM, pCC
   Robert Izsak           : Overlap fitted RIJCOSX, COSX-SCS-MP3, EOM
   Marcus Kettner         : VPT2
   Christian Kollmar      : KDIIS, OOCD, Brueckner-CCSD(T), CCSD density, CASPT2, CASPT2-K
   Simone Kossmann        : Meta GGA functionals, TD-DFT gradient, OOMP2, MP2 Hessian
   Martin Krupicka        : Initial AUTO-CI
   Lucas Lang             : DCDCAS
   Marvin Lechner         : AUTO-CI (C++ implementation), FIC-MRCC
   Dagmar Lenk            : GEPOL surface, SMD
   Dimitrios Liakos       : Extrapolation schemes; Compound Job, initial MDCI parallelization
   Dimitrios Manganas     : Further ROCIS development; embedding schemes
   Dimitrios Pantazis     : SARC Basis sets
   Anastasios Papadopoulos: AUTO-CI, single reference methods and gradients
   Taras Petrenko         : DFT Hessian,TD-DFT gradient, ASA, ECA, R-Raman, ABS, FL, XAS/XES, NRVS
   Peter Pinski           : DLPNO-MP2, DLPNO-MP2 Gradient
   Christoph Reimann      : Effective Core Potentials
   Marius Retegan         : Local ZFS, SOC
   Christoph Riplinger    : Optimizer, TS searches, QM/MM, DLPNO-CCSD(T), (RO)-DLPNO pert. Triples
   Tobias Risthaus        : Range-separated hybrids, TD-DFT gradient, RPA, STAB
   Michael Roemelt        : Original ROCIS implementation
   Masaaki Saitow         : Open-shell DLPNO-CCSD energy and density
   Barbara Sandhoefer     : DKH picture change effects
   Avijit Sen             : IP-ROCIS
   Kantharuban Sivalingam : CASSCF convergence, NEVPT2, FIC-MRCI
   Bernardo de Souza      : ESD, SOC TD-DFT
   Georgi Stoychev        : AutoAux, RI-MP2 NMR, DLPNO-MP2 response
   Willem Van den Heuvel  : Paramagnetic NMR
   Boris Wezisla          : Elementary symmetry handling
   Frank Wennmohs         : Technical directorship


 We gratefully acknowledge several colleagues who have allowed us to
 interface, adapt or use parts of their codes:
   Stefan Grimme, W. Hujo, H. Kruse, P. Pracht,  : VdW corrections, initial TS optimization,
                  C. Bannwarth, S. Ehlert          DFT functionals, gCP, sTDA/sTD-DF
   Ed Valeev, F. Pavosevic, A. Kumar             : LibInt (2-el integral package), F12 methods
   Garnet Chan, S. Sharma, J. Yang, R. Olivares  : DMRG
   Ulf Ekstrom                                   : XCFun DFT Library
   Mihaly Kallay                                 : mrcc  (arbitrary order and MRCC methods)
   Jiri Pittner, Ondrej Demel                    : Mk-CCSD
   Frank Weinhold                                : gennbo (NPA and NBO analysis)
   Christopher J. Cramer and Donald G. Truhlar   : smd solvation model
   Lars Goerigk                                  : TD-DFT with DH, B97 family of functionals
   V. Asgeirsson, H. Jonsson                     : NEB implementation
   FAccTs GmbH                                   : IRC, NEB, NEB-TS, DLPNO-Multilevel, CI-OPT
                                                   MM, QMMM, 2- and 3-layer-ONIOM, Crystal-QMMM,
                                                   LR-CPCM, SF, NACMEs, symmetry and pop. for TD-DFT,
                                                   nearIR, NL-DFT gradient (VV10), updates on ESD,
                                                   ML-optimized integration grids
   S Lehtola, MJT Oliveira, MAL Marques          : LibXC Library
   Liviu Ungur et al                             : ANISO software


 Your calculation uses the libint2 library for the computation of 2-el integrals
 For citations please refer to: http://libint.valeyev.net

 Your ORCA version has been built with support for libXC version: 5.1.0
 For citations please refer to: https://tddft.org/programs/libxc/

 This ORCA versions uses:
   CBLAS   interface :  Fast vector & matrix operations
   LAPACKE interface :  Fast linear algebra routines
   SCALAPACK package :  Parallel linear algebra routines
   Shared memory     :  Shared parallel matrices
   BLAS/LAPACK       :  OpenBLAS 0.3.15  USE64BITINT DYNAMIC_ARCH NO_AFFINITY Haswell SINGLE_THREADED
        Core in use  :  Haswell
   Copyright (c) 2011-2014, The OpenBLAS Project


Your calculation utilizes the SMD solvation module
Please cite in your paper:
A.V. Marenich, C.J. Cramer, D.G. Truhlar J. Phys. Chem. B, 113, (2009), 6378 

================================================================================

----- Orbital basis set information -----
Your calculation utilizes the basis: aug-cc-pVTZ 
    H, B-Ne : Obtained from the ccRepo (grant-hill.group.shef.ac.uk/ccrepo) Feb. 2017
              R. A. Kendall, T. H. Dunning, Jr., R. J. Harrison, J. Chem. Phys. 96, 6796 (1992)
         He : Obtained from the ccRepo (grant-hill.group.shef.ac.uk/ccrepo) Feb. 2017
              D. E. Woon, T. H. Dunning, Jr., J. Chem. Phys. 100, 2975 (1994)
  Li-Be, Na : Obtained from the ccRepo (grant-hill.group.shef.ac.uk/ccrepo) Feb. 2017
              B. P. Prascher, D. E. Woon, K. A. Peterson, T. H. Dunning, Jr., A. K. Wilson, Theor. Chem. Acc. 128, 69 (2011)
         Mg : Obtained from the Peterson Research Group Website (tyr0.chem.wsu.edu/~kipeters) Feb. 2017
              B. P. Prascher, D. E. Woon, K. A. Peterson, T. H. Dunning, Jr., A. K. Wilson, Theor. Chem. Acc. 128, 69 (2011)
      Al-Ar : Obtained from the ccRepo (grant-hill.group.shef.ac.uk/ccrepo) Feb. 2017
              D. E. Woon, T. H. Dunning, Jr., J. Chem. Phys. 98, 1358 (1993)
      Sc-Zn : Obtained from the ccRepo (grant-hill.group.shef.ac.uk/ccrepo) Feb. 2017
              N. B. Balabanov, K. A. Peterson, J. Chem. Phys. 123, 064107 (2005)
              N. B. Balabanov, K. A. Peterson, J. Chem. Phys. 125, 074110 (2006)
      Ga-Kr : Obtained from the ccRepo (grant-hill.group.shef.ac.uk/ccrepo) Feb. 2017
              A. K. Wilson, D. E. Woon, K. A. Peterson, T. H. Dunning, Jr., J. Chem. Phys. 110, 7667 (1999)
     Ag, Au : Obtained from the Peterson Research Group Website (tyr0.chem.wsu.edu/~kipeters) Feb. 2017
              K. A. Peterson, C. Puzzarini, Theor. Chem. Acc. 114, 283 (2005)

The basis set includes element-specific modifications.

Your calculation utilizes the basis: cc-pVTZ 
       H, B-Ne : Obtained from the ccRepo (grant-hill.group.shef.ac.uk/ccrepo) Feb. 2017
                 T. H. Dunning, Jr., J. Chem. Phys. 90, 1007 (1989)
            He : Obtained from the ccRepo (grant-hill.group.shef.ac.uk/ccrepo) Feb. 2017
                 D. E. Woon, T. H. Dunning, Jr., J. Chem. Phys. 100, 2975 (1994)
  Li-Be, Na-Mg : Obtained from the ccRepo (grant-hill.group.shef.ac.uk/ccrepo) Feb. 2017
                 B. P. Prascher, D. E. Woon, K. A. Peterson, T. H. Dunning, Jr., A. K. Wilson, Theor. Chem. Acc. 128, 69 (2011)
         Al-Ar : Obtained from the ccRepo (grant-hill.group.shef.ac.uk/ccrepo) Feb. 2017
                 D. E. Woon, T. H. Dunning, Jr., J. Chem. Phys. 98, 1358 (1993)
            Ca : Obtained from the Peterson Research Group Website (tyr0.chem.wsu.edu/~kipeters) Feb. 2017
                 J. Koput, K. A. Peterson, J. Phys. Chem. 106, 9595 (2002)
         Sc-Zn : Obtained from the ccRepo (grant-hill.group.shef.ac.uk/ccrepo) Feb. 2017
                 N. B. Balabanov, K. A. Peterson, J. Chem. Phys. 123, 064107 (2005)
                 N. B. Balabanov, K. A. Peterson, J. Chem. Phys. 125, 074110 (2006)
         Ga-Kr : Obtained from the ccRepo (grant-hill.group.shef.ac.uk/ccrepo) Feb. 2017
                 A. K. Wilson, D. E. Woon, K. A. Peterson, T. H. Dunning, Jr., J. Chem. Phys. 110, 7667 (1999)
             Y : Obtained from the ccRepo (grant-hill.group.shef.ac.uk/ccrepo) Feb. 2017
                 K. A. Peterson, D. Figgen, M. Dolg, H. Stoll, J. Chem. Phys. 126, 124101 (2007)
        Ag, Au : Obtained from the Peterson Research Group Website (tyr0.chem.wsu.edu/~kipeters) Feb. 2017
                 K. A. Peterson, C. Puzzarini, Theor. Chem. Acc. 114, 283 (2005)

----- AuxJ basis set information -----
Your calculation utilizes the auxiliary basis: aug-cc-pVTZ/JK 
  H, B-F, Al-Cl, Ga-Br : Obtained from the TURBOMOLE 7.0 basis set library

The basis set includes element-specific modifications.

Your calculation utilizes the auxiliary basis: cc-pVTZ/JK 
  H, B-F, Al-Cl, Ga-Br : Obtained from the TURBOMOLE 7.0 basis set library

----- AuxC basis set information -----
Your calculation utilizes the auxiliary basis: aug-cc-pVTZ/C 
  H-He, B-F, Al-Ar, Ga-Kr : Obtained from the EMSL Basis Set Exchange (bse.pnl.gov) Feb. 2017
                            F. Weigend, A. Kohn, C. Hattig, J. Chem. Phys. 116, 3175 (2002)
                   Be, Mg : Obtained from the TURBOMOLE 7.0 basis set library
                            C. Haettig, Phys. Chem. Chem. Phys. 7, 59 (2005)
                       Ne : Obtained from the EMSL Basis Set Exchange (bse.pnl.gov) Feb. 2017
                            C. Haettig, Phys. Chem. Chem. Phys. 7, 59 (2005)
                            F. Weigend, A. Kohn, C. Hattig, J. Chem. Phys. 116, 3175 (2002)
                    Sc-Zn : Obtained from the EMSL Basis Set Exchange (bse.pnl.gov) Feb. 2017
                            J. G. Hill, J. A. Platts, J. Chem. Phys. 128, 044104 (2008)

The basis set includes element-specific modifications.

Your calculation utilizes the auxiliary basis: cc-pVTZ/C 
  Obtained from the EMSL Basis Set Exchange (bse.pnl.gov) Feb. 2017
  H-He, B-F, Al-Ar, Ga-Kr : F. Weigend, A. Kohn, C. Hattig, J. Chem. Phys. 116, 3175 (2002)
             Li-Be, Na-Mg : C. Haettig, Phys. Chem. Chem. Phys. 7, 59 (2005)
                       Ne : C. Haettig, Phys. Chem. Chem. Phys. 7, 59 (2005)
                            F. Weigend, A. Kohn, C. Hattig, J. Chem. Phys. 116, 3175 (2002)
                    Sc-Zn : J. G. Hill, J. A. Platts, J. Chem. Phys. 128, 044104 (2008)

================================================================================
                                        WARNINGS
                       Please study these warnings very carefully!
================================================================================


WARNING: Geometry Optimization
  ===> : Switching off AutoStart
         For restart on a previous wavefunction, please use MOREAD

INFO   : the flag for use of the SHARK integral package has been found!



***************************************
The coordinates will be read from file: 
***************************************


Your calculation utilizes the SMD solvation module
Please cite in your paper:
A.V. Marenich, C.J. Cramer, D.G. Truhlar J. Phys. Chem. B, 113, (2009), 6378 

================================================================================

----- Orbital basis set information -----
Your calculation utilizes the basis: aug-cc-pVTZ 
    H, B-Ne : Obtained from the ccRepo (grant-hill.group.shef.ac.uk/ccrepo) Feb. 2017
              R. A. Kendall, T. H. Dunning, Jr., R. J. Harrison, J. Chem. Phys. 96, 6796 (1992)
         He : Obtained from the ccRepo (grant-hill.group.shef.ac.uk/ccrepo) Feb. 2017
              D. E. Woon, T. H. Dunning, Jr., J. Chem. Phys. 100, 2975 (1994)
  Li-Be, Na : Obtained from the ccRepo (grant-hill.group.shef.ac.uk/ccrepo) Feb. 2017
              B. P. Prascher, D. E. Woon, K. A. Peterson, T. H. Dunning, Jr., A. K. Wilson, Theor. Chem. Acc. 128, 69 (2011)
         Mg : Obtained from the Peterson Research Group Website (tyr0.chem.wsu.edu/~kipeters) Feb. 2017
              B. P. Prascher, D. E. Woon, K. A. Peterson, T. H. Dunning, Jr., A. K. Wilson, Theor. Chem. Acc. 128, 69 (2011)
      Al-Ar : Obtained from the ccRepo (grant-hill.group.shef.ac.uk/ccrepo) Feb. 2017
              D. E. Woon, T. H. Dunning, Jr., J. Chem. Phys. 98, 1358 (1993)
      Sc-Zn : Obtained from the ccRepo (grant-hill.group.shef.ac.uk/ccrepo) Feb. 2017
              N. B. Balabanov, K. A. Peterson, J. Chem. Phys. 123, 064107 (2005)
              N. B. Balabanov, K. A. Peterson, J. Chem. Phys. 125, 074110 (2006)
      Ga-Kr : Obtained from the ccRepo (grant-hill.group.shef.ac.uk/ccrepo) Feb. 2017
              A. K. Wilson, D. E. Woon, K. A. Peterson, T. H. Dunning, Jr., J. Chem. Phys. 110, 7667 (1999)
     Ag, Au : Obtained from the Peterson Research Group Website (tyr0.chem.wsu.edu/~kipeters) Feb. 2017
              K. A. Peterson, C. Puzzarini, Theor. Chem. Acc. 114, 283 (2005)

The basis set includes element-specific modifications.

Your calculation utilizes the basis: cc-pVTZ 
       H, B-Ne : Obtained from the ccRepo (grant-hill.group.shef.ac.uk/ccrepo) Feb. 2017
                 T. H. Dunning, Jr., J. Chem. Phys. 90, 1007 (1989)
            He : Obtained from the ccRepo (grant-hill.group.shef.ac.uk/ccrepo) Feb. 2017
                 D. E. Woon, T. H. Dunning, Jr., J. Chem. Phys. 100, 2975 (1994)
  Li-Be, Na-Mg : Obtained from the ccRepo (grant-hill.group.shef.ac.uk/ccrepo) Feb. 2017
                 B. P. Prascher, D. E. Woon, K. A. Peterson, T. H. Dunning, Jr., A. K. Wilson, Theor. Chem. Acc. 128, 69 (2011)
         Al-Ar : Obtained from the ccRepo (grant-hill.group.shef.ac.uk/ccrepo) Feb. 2017
                 D. E. Woon, T. H. Dunning, Jr., J. Chem. Phys. 98, 1358 (1993)
            Ca : Obtained from the Peterson Research Group Website (tyr0.chem.wsu.edu/~kipeters) Feb. 2017
                 J. Koput, K. A. Peterson, J. Phys. Chem. 106, 9595 (2002)
         Sc-Zn : Obtained from the ccRepo (grant-hill.group.shef.ac.uk/ccrepo) Feb. 2017
                 N. B. Balabanov, K. A. Peterson, J. Chem. Phys. 123, 064107 (2005)
                 N. B. Balabanov, K. A. Peterson, J. Chem. Phys. 125, 074110 (2006)
         Ga-Kr : Obtained from the ccRepo (grant-hill.group.shef.ac.uk/ccrepo) Feb. 2017
                 A. K. Wilson, D. E. Woon, K. A. Peterson, T. H. Dunning, Jr., J. Chem. Phys. 110, 7667 (1999)
             Y : Obtained from the ccRepo (grant-hill.group.shef.ac.uk/ccrepo) Feb. 2017
                 K. A. Peterson, D. Figgen, M. Dolg, H. Stoll, J. Chem. Phys. 126, 124101 (2007)
        Ag, Au : Obtained from the Peterson Research Group Website (tyr0.chem.wsu.edu/~kipeters) Feb. 2017
                 K. A. Peterson, C. Puzzarini, Theor. Chem. Acc. 114, 283 (2005)

----- AuxJ basis set information -----
Your calculation utilizes the auxiliary basis: aug-cc-pVTZ/JK 
  H, B-F, Al-Cl, Ga-Br : Obtained from the TURBOMOLE 7.0 basis set library

The basis set includes element-specific modifications.

Your calculation utilizes the auxiliary basis: cc-pVTZ/JK 
  H, B-F, Al-Cl, Ga-Br : Obtained from the TURBOMOLE 7.0 basis set library

----- AuxC basis set information -----
Your calculation utilizes the auxiliary basis: aug-cc-pVTZ/C 
  H-He, B-F, Al-Ar, Ga-Kr : Obtained from the EMSL Basis Set Exchange (bse.pnl.gov) Feb. 2017
                            F. Weigend, A. Kohn, C. Hattig, J. Chem. Phys. 116, 3175 (2002)
                   Be, Mg : Obtained from the TURBOMOLE 7.0 basis set library
                            C. Haettig, Phys. Chem. Chem. Phys. 7, 59 (2005)
                       Ne : Obtained from the EMSL Basis Set Exchange (bse.pnl.gov) Feb. 2017
                            C. Haettig, Phys. Chem. Chem. Phys. 7, 59 (2005)
                            F. Weigend, A. Kohn, C. Hattig, J. Chem. Phys. 116, 3175 (2002)
                    Sc-Zn : Obtained from the EMSL Basis Set Exchange (bse.pnl.gov) Feb. 2017
                            J. G. Hill, J. A. Platts, J. Chem. Phys. 128, 044104 (2008)

The basis set includes element-specific modifications.

Your calculation utilizes the auxiliary basis: cc-pVTZ/C 
  Obtained from the EMSL Basis Set Exchange (bse.pnl.gov) Feb. 2017
  H-He, B-F, Al-Ar, Ga-Kr : F. Weigend, A. Kohn, C. Hattig, J. Chem. Phys. 116, 3175 (2002)
             Li-Be, Na-Mg : C. Haettig, Phys. Chem. Chem. Phys. 7, 59 (2005)
                       Ne : C. Haettig, Phys. Chem. Chem. Phys. 7, 59 (2005)
                            F. Weigend, A. Kohn, C. Hattig, J. Chem. Phys. 116, 3175 (2002)
                    Sc-Zn : J. G. Hill, J. A. Platts, J. Chem. Phys. 128, 044104 (2008)

================================================================================
                                        WARNINGS
                       Please study these warnings very carefully!
================================================================================

INFO   : Checking CIS options ...

INFO   : the flag for use of the SHARK integral package has been found!

================================================================================
                                       INPUT FILE
================================================================================
NAME = b3lyp-train-15.inp
|  1> ! b3lyp aug-cc-PVTZ RIJCOSX Opt
|  2> %maxcore 4000
|  3> %basis
|  4>  AuxJ "aug-cc-PVTZ/JK"
|  5>  AuxC "aug-cc-PVTZ/C"
|  6>  newGTO H "cc-PVTZ" end
|  7>  newAuxJGTO H "cc-PVTZ/JK" end
|  8>  newAuxCGTO H "cc-PVTZ/C" end
|  9> end
| 10> %cpcm
| 11>  SMD true
| 12>  SMDsolvent "dimethylsulfoxide"
| 13> end
| 14> %pal nprocs 4 end
| 15> * xyz 0 1
| 16> C         -6.40460        1.20310        0.64210
| 17> C         -5.24970        0.46740        0.07220
| 18> C         -5.28390       -0.60600       -0.78920
| 19> N         -4.10750       -1.10170       -1.17240
| 20> C         -3.10180       -0.47260       -0.65330
| 21> N         -1.84160       -0.77160       -0.88030
| 22> N         -0.94070       -0.06400       -0.28470
| 23> C          0.33600       -0.36430       -0.52760
| 24> C          0.92970       -1.31870       -1.34880
| 25> C          2.31270       -1.28290       -1.30880
| 26> C          2.81780       -0.30790       -0.46080
| 27> C          4.18450       -0.01940       -0.19830
| 28> C          4.70860        0.93560        0.64110
| 29> C          6.11230        0.94260        0.65870
| 30> C          6.65350        0.00020       -0.16130
| 31> S          5.45820       -0.92080       -0.97660
| 32> S          1.54470        0.58790        0.30300
| 33> S         -3.62590        0.89480        0.43750
| 34> H         -7.33680        0.75810        0.30210
| 35> H         -6.37820        2.24890        0.33630
| 36> H         -6.37380        1.17710        1.73100
| 37> H         -6.18500       -1.05910       -1.16430
| 38> H          0.33790       -1.99490       -1.93880
| 39> H          2.95460       -1.93830       -1.87160
| 40> H          4.09050        1.60000        1.21750
| 41> H          6.69910        1.61820        1.25460
| 42> H          7.68910       -0.21160       -0.33850
| 43> *
| 44> 
| 45> 
| 46> $new_job
| 47> ! b3lyp aug-cc-PVTZ RIJCOSX SP
| 48> %maxcore 4000
| 49> %basis
| 50>  AuxJ "aug-cc-PVTZ/JK"
| 51>  AuxC "aug-cc-PVTZ/C"
| 52>  newGTO H "cc-PVTZ" end
| 53>  newAuxJGTO H "cc-PVTZ/JK" end
| 54>  newAuxCGTO H "cc-PVTZ/C" end
| 55> end
| 56> %cpcm
| 57>  SMD true
| 58>  SMDsolvent "dimethylsulfoxide"
| 59> end
| 60> %pal nprocs 4 end
| 61> %tddft
| 62>  nroots 10
| 63>  maxdim 7
| 64> end
| 65> * xyzfile 0 1
| 66> 
| 67>                          ****END OF INPUT****
================================================================================


                 $$$$$$$$$$$$$$$$$$$$$$$$$$$$$$$$$$$$$$$$$$$$$$ 
                 $ THERE ARE  2 JOBS TO BE PROCESSED THIS RUN $
                 $$$$$$$$$$$$$$$$$$$$$$$$$$$$$$$$$$$$$$$$$$$$$$ 




                 $$$$$$$$$$$$$$$$  JOB NUMBER  1 $$$$$$$$$$$$$$


                       *****************************
                       * Geometry Optimization Run *
                       *****************************

Geometry optimization settings:
Update method            Update   .... BFGS
Choice of coordinates    CoordSys .... Z-matrix Internals
Initial Hessian          InHess   .... Almoef's Model

Convergence Tolerances:
Energy Change            TolE     ....  5.0000e-06 Eh
Max. Gradient            TolMAXG  ....  3.0000e-04 Eh/bohr
RMS Gradient             TolRMSG  ....  1.0000e-04 Eh/bohr
Max. Displacement        TolMAXD  ....  4.0000e-03 bohr
RMS Displacement         TolRMSD  ....  2.0000e-03 bohr
Strict Convergence                ....  False
------------------------------------------------------------------------------
                        ORCA OPTIMIZATION COORDINATE SETUP
------------------------------------------------------------------------------

The optimization will be done in new redundant internal coordinates
Making redundant internal coordinates   ...  (new redundants) done
Evaluating the initial hessian          ...  (Almloef) done
Evaluating the coordinates              ...  done
Calculating the B-matrix                .... done
Calculating the G-matrix                .... done
Diagonalizing the G-matrix              .... done
Small eigenvalue found = 1.880e-03
Small eigenvalue found = 9.429e-03
Small eigenvalue found = 1.737e-02
Small eigenvalue found = 1.920e-02
Small eigenvalue found = 2.312e-02
The first mode is                       ....   58
The number of degrees of freedom        ....   75

    -----------------------------------------------------------------
                    Redundant Internal Coordinates


    -----------------------------------------------------------------
         Definition                    Initial Value    Approx d2E/dq
    -----------------------------------------------------------------
      1. B(C   1,C   0)                  1.4832         0.443680   
      2. B(C   2,C   1)                  1.3767         0.656025   
      3. B(N   3,C   2)                  1.3328         0.690338   
      4. B(C   4,N   3)                  1.2949         0.793714   
      5. B(N   5,C   4)                  1.3149         0.737308   
      6. B(N   6,N   5)                  1.2911         0.720655   
      7. B(C   7,N   6)                  1.3338         0.687807   
      8. B(C   8,C   7)                  1.3920         0.620170   
      9. B(C   9,C   8)                  1.3840         0.638624   
     10. B(C  10,C   9)                  1.3874         0.630813   
     11. B(C  11,C  10)                  1.4213         0.556993   
     12. B(C  12,C  11)                  1.3752         0.659598   
     13. B(C  13,C  12)                  1.4038         0.593851   
     14. B(C  14,C  13)                  1.3614         0.694009   
     15. B(S  15,C  11)                  1.7437         0.459364   
     16. B(S  15,C  14)                  1.7151         0.510235   
     17. B(S  16,C  10)                  1.7340         0.476139   
     18. B(S  16,C   7)                  1.7486         0.451245   
     19. B(S  17,C   4)                  1.8260         0.339533   
     20. B(S  17,C   1)                  1.7184         0.504187   
     21. B(H  18,C   0)                  1.0875         0.363444   
     22. B(H  19,C   0)                  1.0899         0.360216   
     23. B(H  20,C   0)                  1.0896         0.360569   
     24. B(H  21,C   2)                  1.0761         0.378972   
     25. B(H  22,C   8)                  1.0750         0.380533   
     26. B(H  23,C   9)                  1.0763         0.378747   
     27. B(H  24,C  12)                  1.0750         0.380443   
     28. B(H  25,C  13)                  1.0751         0.380343   
     29. B(H  26,C  14)                  1.0718         0.385018   
     30. A(H  18,C   0,H  20)          109.0807         0.291322   
     31. A(C   1,C   0,H  20)          110.4954         0.333732   
     32. A(C   1,C   0,H  18)          110.1432         0.334172   
     33. A(H  19,C   0,H  20)          107.6133         0.290914   
     34. A(C   1,C   0,H  19)          110.4435         0.333677   
     35. A(H  18,C   0,H  19)          109.0069         0.291277   
     36. A(C   2,C   1,S  17)          110.5123         0.445940   
     37. A(C   0,C   1,S  17)          122.0560         0.415702   
     38. A(C   0,C   1,C   2)          127.4316         0.413013   
     39. A(N   3,C   2,H  21)          118.8342         0.360300   
     40. A(C   1,C   2,H  21)          124.5546         0.359413   
     41. A(C   1,C   2,N   3)          116.6112         0.444164   
     42. A(C   2,N   3,C   4)          112.9278         0.456763   
     43. A(N   5,C   4,S  17)          123.2627         0.421372   
     44. A(N   3,C   4,S  17)          112.3572         0.426964   
     45. A(N   3,C   4,N   5)          124.3799         0.462283   
     46. A(C   4,N   5,N   6)          117.6752         0.451148   
     47. A(N   5,N   6,C   7)          117.4174         0.445496   
     48. A(N   6,C   7,C   8)          132.0685         0.439383   
     49. A(C   8,C   7,S  16)          111.0245         0.432689   
     50. A(N   6,C   7,S  16)          116.9060         0.437941   
     51. A(C   9,C   8,H  22)          125.6084         0.358022   
     52. A(C   7,C   8,H  22)          121.3501         0.356243   
     53. A(C   7,C   8,C   9)          113.0414         0.436407   
     54. A(C  10,C   9,H  23)          122.0351         0.356989   
     55. A(C   8,C   9,H  23)          124.4096         0.357736   
     56. A(C   8,C   9,C  10)          113.5552         0.437747   
     57. A(C   9,C  10,C  11)          127.2739         0.427117   
     58. A(C  11,C  10,S  16)          121.3188         0.428534   
     59. A(C   9,C  10,S  16)          111.4073         0.438234   
     60. A(C  12,C  11,S  15)          110.6731         0.438927   
     61. A(C  10,C  11,S  15)          120.9996         0.425789   
     62. A(C  10,C  11,C  12)          128.3273         0.430550   
     63. A(C  11,C  12,C  13)          113.0900         0.435539   
     64. A(C  11,C  12,H  24)          122.5009         0.359983   
     65. A(C  13,C  12,H  24)          124.4092         0.353619   
     66. A(C  12,C  13,C  14)          112.7364         0.439551   
     67. A(C  14,C  13,H  25)          123.4953         0.363104   
     68. A(C  12,C  13,H  25)          123.7683         0.353603   
     69. A(S  15,C  14,H  26)          119.2536         0.363375   
     70. A(C  13,C  14,H  26)          128.3516         0.363863   
     71. A(C  13,C  14,S  15)          112.3948         0.451493   
     72. A(C  11,S  15,C  14)           91.1058         0.442350   
     73. A(C   7,S  16,C  10)           90.9714         0.435460   
     74. A(C   1,S  17,C   4)           87.5915         0.418094   
     75. D(C   2,C   1,C   0,H  20)    122.0347         0.014522   
     76. D(S  17,C   1,C   0,H  18)   -178.7265         0.014522   
     77. D(S  17,C   1,C   0,H  19)     60.8127         0.014522   
     78. D(C   2,C   1,C   0,H  18)      1.4483         0.014522   
     79. D(S  17,C   1,C   0,H  20)    -58.1401         0.014522   
     80. D(C   2,C   1,C   0,H  19)   -119.0125         0.014522   
     81. D(N   3,C   2,C   1,S  17)     -0.0721         0.030005   
     82. D(H  21,C   2,C   1,S  17)    179.9598         0.030005   
     83. D(H  21,C   2,C   1,C   0)     -0.1984         0.030005   
     84. D(N   3,C   2,C   1,C   0)    179.7697         0.030005   
     85. D(C   4,N   3,C   2,H  21)   -179.9482         0.035595   
     86. D(C   4,N   3,C   2,C   1)      0.0817         0.035595   
     87. D(S  17,C   4,N   3,C   2)     -0.0518         0.048463   
     88. D(N   5,C   4,N   3,C   2)   -179.8732         0.048463   
     89. D(N   6,N   5,C   4,N   3)   -179.4409         0.041138   
     90. D(N   6,N   5,C   4,S  17)      0.7566         0.041138   
     91. D(C   7,N   6,N   5,C   4)   -179.4365         0.040845   
     92. D(S  16,C   7,N   6,N   5)   -179.1778         0.035310   
     93. D(C   8,C   7,N   6,N   5)      1.2188         0.035310   
     94. D(H  22,C   8,C   7,S  16)   -179.9138         0.026615   
     95. D(H  22,C   8,C   7,N   6)     -0.2927         0.026615   
     96. D(C   9,C   8,C   7,S  16)      0.0131         0.026615   
     97. D(C   9,C   8,C   7,N   6)    179.6342         0.026615   
     98. D(H  23,C   9,C   8,H  22)     -0.0571         0.028328   
     99. D(H  23,C   9,C   8,C   7)   -179.9803         0.028328   
    100. D(C  10,C   9,C   8,H  22)    179.9846         0.028328   
    101. D(C  10,C   9,C   8,C   7)      0.0614         0.028328   
    102. D(S  16,C  10,C   9,H  23)    179.9324         0.027595   
    103. D(S  16,C  10,C   9,C   8)     -0.1082         0.027595   
    104. D(C  11,C  10,C   9,H  23)     -0.1000         0.027595   
    105. D(C  11,C  10,C   9,C   8)    179.8594         0.027595   
    106. D(S  15,C  11,C  10,S  16)   -179.7202         0.021243   
    107. D(S  15,C  11,C  10,C   9)      0.3152         0.021243   
    108. D(C  12,C  11,C  10,S  16)      0.3067         0.021243   
    109. D(C  12,C  11,C  10,C   9)   -179.6579         0.021243   
    110. D(H  24,C  12,C  11,S  15)   -179.9906         0.030356   
    111. D(H  24,C  12,C  11,C  10)     -0.0152         0.030356   
    112. D(C  13,C  12,C  11,S  15)     -0.0125         0.030356   
    113. D(C  13,C  12,C  11,C  10)    179.9629         0.030356   
    114. D(H  25,C  13,C  12,H  24)     -0.0073         0.024285   
    115. D(H  25,C  13,C  12,C  11)   -179.9849         0.024285   
    116. D(C  14,C  13,C  12,H  24)    179.9890         0.024285   
    117. D(C  14,C  13,C  12,C  11)      0.0113         0.024285   
    118. D(H  26,C  14,C  13,H  25)     -0.0233         0.033874   
    119. D(H  26,C  14,C  13,C  12)    179.9804         0.033874   
    120. D(S  15,C  14,C  13,H  25)    179.9915         0.033874   
    121. D(S  15,C  14,C  13,C  12)     -0.0048         0.033874   
    122. D(C  11,S  15,C  14,H  26)   -179.9887         0.005367   
    123. D(C  11,S  15,C  14,C  13)     -0.0020         0.005367   
    124. D(C  14,S  15,C  11,C  12)      0.0082         0.004603   
    125. D(C  14,S  15,C  11,C  10)   -179.9692         0.004603   
    126. D(C   7,S  16,C  10,C  11)   -179.8737         0.004844   
    127. D(C   7,S  16,C  10,C   9)      0.0961         0.004844   
    128. D(C  10,S  16,C   7,C   8)     -0.0623         0.004489   
    129. D(C  10,S  16,C   7,N   6)   -179.7468         0.004489   
    130. D(C   1,S  17,C   4,N   5)    179.8338         0.003156   
    131. D(C   1,S  17,C   4,N   3)      0.0100         0.003156   
    132. D(C   4,S  17,C   1,C   2)      0.0326         0.005271   
    133. D(C   4,S  17,C   1,C   0)   -179.8192         0.005271   
    -----------------------------------------------------------------

Number of atoms                         .... 27
Number of degrees of freedom            .... 133

         *************************************************************
         *                GEOMETRY OPTIMIZATION CYCLE   1            *
         *************************************************************
---------------------------------
CARTESIAN COORDINATES (ANGSTROEM)
---------------------------------
  C     -6.404600    1.203100    0.642100
  C     -5.249700    0.467400    0.072200
  C     -5.283900   -0.606000   -0.789200
  N     -4.107500   -1.101700   -1.172400
  C     -3.101800   -0.472600   -0.653300
  N     -1.841600   -0.771600   -0.880300
  N     -0.940700   -0.064000   -0.284700
  C      0.336000   -0.364300   -0.527600
  C      0.929700   -1.318700   -1.348800
  C      2.312700   -1.282900   -1.308800
  C      2.817800   -0.307900   -0.460800
  C      4.184500   -0.019400   -0.198300
  C      4.708600    0.935600    0.641100
  C      6.112300    0.942600    0.658700
  C      6.653500    0.000200   -0.161300
  S      5.458200   -0.920800   -0.976600
  S      1.544700    0.587900    0.303000
  S     -3.625900    0.894800    0.437500
  H     -7.336800    0.758100    0.302100
  H     -6.378200    2.248900    0.336300
  H     -6.373800    1.177100    1.731000
  H     -6.185000   -1.059100   -1.164300
  H      0.337900   -1.994900   -1.938800
  H      2.954600   -1.938300   -1.871600
  H      4.090500    1.600000    1.217500
  H      6.699100    1.618200    1.254600
  H      7.689100   -0.211600   -0.338500

----------------------------
CARTESIAN COORDINATES (A.U.)
----------------------------
  NO LB      ZA    FRAG     MASS         X           Y           Z
   0 C     6.0000    0    12.011  -12.102940    2.273530    1.213393
   1 C     6.0000    0    12.011   -9.920495    0.883258    0.136438
   2 C     6.0000    0    12.011   -9.985124   -1.145174   -1.491372
   3 N     7.0000    0    14.007   -7.762050   -2.081911   -2.215515
   4 C     6.0000    0    12.011   -5.861553   -0.893085   -1.234558
   5 N     7.0000    0    14.007   -3.480120   -1.458113   -1.663526
   6 N     7.0000    0    14.007   -1.777665   -0.120942   -0.538005
   7 C     6.0000    0    12.011    0.634948   -0.688427   -0.997020
   8 C     6.0000    0    12.011    1.756878   -2.491982   -2.548863
   9 C     6.0000    0    12.011    4.370370   -2.424330   -2.473274
  10 C     6.0000    0    12.011    5.324870   -0.581847   -0.870786
  11 C     6.0000    0    12.011    7.907559   -0.036661   -0.374733
  12 C     6.0000    0    12.011    8.897964    1.768028    1.211503
  13 C     6.0000    0    12.011   11.550573    1.781256    1.244763
  14 C     6.0000    0    12.011   12.573293    0.000378   -0.304813
  15 S    16.0000    0    32.060   10.314503   -1.740060   -1.845507
  16 S    16.0000    0    32.060    2.919060    1.110970    0.572587
  17 S    16.0000    0    32.060   -6.851958    1.690927    0.826755
  18 H     1.0000    0     1.008  -13.864543    1.432601    0.570886
  19 H     1.0000    0     1.008  -12.053051    4.249805    0.635515
  20 H     1.0000    0     1.008  -12.044736    2.224397    3.271116
  21 H     1.0000    0     1.008  -11.687956   -2.001409   -2.200208
  22 H     1.0000    0     1.008    0.638538   -3.769815   -3.663801
  23 H     1.0000    0     1.008    5.583385   -3.662856   -3.536811
  24 H     1.0000    0     1.008    7.729925    3.023562    2.300742
  25 H     1.0000    0     1.008   12.659464    3.057955    2.370850
  26 H     1.0000    0     1.008   14.530293   -0.399866   -0.639672

--------------------------------
INTERNAL COORDINATES (ANGSTROEM)
--------------------------------
 C      0   0   0     0.000000000000     0.00000000     0.00000000
 C      1   0   0     1.483183909702     0.00000000     0.00000000
 C      2   1   0     1.376723341852   127.43156027     0.00000000
 N      3   2   1     1.332845711251   116.61117704   179.76970621
 C      4   3   2     1.294860652734   112.92782957     0.08171976
 N      5   4   3     1.314927389630   124.37988595   180.12675332
 N      6   5   4     1.291145975481   117.67518377   180.55911071
 C      7   6   5     1.333845339610   117.41740699   180.56349239
 C      8   7   6     1.392023164319   132.06849354     1.21877910
 C      9   8   7     1.384041415565   113.04142654   179.63420699
 C     10   9   8     1.387391440798   113.55524179     0.06135814
 C     11  10   9     1.421269640146   127.27388723   179.85940227
 C     12  11  10     1.375244767305   128.32732177   180.34206345
 C     13  12  11     1.403827785022   113.08996284   179.96288894
 C     14  13  12     1.361401924488   112.73640443     0.00000000
 S     15  14  13     1.715137656283   112.39479476     0.00000000
 S     11  10   9     1.733964154762   111.40729683   359.89184312
 S      2   1   3     1.718383336162   122.05595362   179.82520765
 H      1   2   3     1.087484179195   110.14324702     1.44825620
 H      1   2   3     1.089912033148   110.44347942   240.98748219
 H      1   2   3     1.089645745185   110.49542295   122.03466782
 H      3   2   1     1.076095177017   124.55463072   359.80158249
 H      9   8   7     1.074976129968   121.35009188   359.70727563
 H     10   9   8     1.076256758399   124.40963219   180.01967055
 H     13  12  11     1.075040431798   122.50085991     0.00000000
 H     14  13  12     1.075112277858   123.76832564   180.01509630
 H     15  14  13     1.071786564573   128.35162750   179.98044240

---------------------------
INTERNAL COORDINATES (A.U.)
---------------------------
 C      0   0   0     0.000000000000     0.00000000     0.00000000
 C      1   0   0     2.802811395576     0.00000000     0.00000000
 C      2   1   0     2.601630078277   127.43156027     0.00000000
 N      3   2   1     2.518713373036   116.61117704   179.76970621
 C      4   3   2     2.446932015259   112.92782957     0.08171976
 N      5   4   3     2.484852652393   124.37988595   180.12675332
 N      6   5   4     2.439912292573   117.67518377   180.55911071
 C      7   6   5     2.520602396871   117.41740699   180.56349239
 C      8   7   6     2.630542552637   132.06849354     1.21877910
 C      9   8   7     2.615459233423   113.04142654   179.63420699
 C     10   9   8     2.621789863655   113.55524179     0.06135814
 C     11  10   9     2.685810382332   127.27388723   179.85940227
 C     12  11  10     2.598835977315   128.32732177   180.34206345
 C     13  12  11     2.652850052881   113.08996284   179.96288894
 C     14  13  12     2.572676795476   112.73640443     0.00000000
 S     15  14  13     3.241140452350   112.39479476     0.00000000
 S     11  10   9     3.276717378537   111.40729683   359.89184312
 S      2   1   3     3.247273898441   122.05595362   179.82520765
 H      1   2   3     2.055047273651   110.14324702     1.44825620
 H      1   2   3     2.059635252714   110.44347942   240.98748219
 H      1   2   3     2.059132041392   110.49542295   122.03466782
 H      3   2   1     2.033525178596   124.55463072   359.80158249
 H      9   8   7     2.031410486141   121.35009188   359.70727563
 H     10   9   8     2.033830523156   124.40963219   180.01967055
 H     13  12  11     2.031531998990   122.50085991     0.00000000
 H     14  13  12     2.031667768367   123.76832564   180.01509630
 H     15  14  13     2.025383081060   128.35162750   179.98044240

---------------------
BASIS SET INFORMATION
---------------------
There are 4 groups of distinct atoms

 Group   1 Type C   : 19s6p3d2f contracted to 5s4p3d2f pattern {88111/3111/111/11}
 Group   2 Type N   : 19s6p3d2f contracted to 5s4p3d2f pattern {88111/3111/111/11}
 Group   3 Type S   : 42s17p3d2f contracted to 6s5p3d2f pattern {131313111/77111/111/11}
 Group   4 Type H   : 5s2p1d contracted to 3s2p1d pattern {311/11/1}

Atom   0C    basis set group =>   1
Atom   1C    basis set group =>   1
Atom   2C    basis set group =>   1
Atom   3N    basis set group =>   2
Atom   4C    basis set group =>   1
Atom   5N    basis set group =>   2
Atom   6N    basis set group =>   2
Atom   7C    basis set group =>   1
Atom   8C    basis set group =>   1
Atom   9C    basis set group =>   1
Atom  10C    basis set group =>   1
Atom  11C    basis set group =>   1
Atom  12C    basis set group =>   1
Atom  13C    basis set group =>   1
Atom  14C    basis set group =>   1
Atom  15S    basis set group =>   3
Atom  16S    basis set group =>   3
Atom  17S    basis set group =>   3
Atom  18H    basis set group =>   4
Atom  19H    basis set group =>   4
Atom  20H    basis set group =>   4
Atom  21H    basis set group =>   4
Atom  22H    basis set group =>   4
Atom  23H    basis set group =>   4
Atom  24H    basis set group =>   4
Atom  25H    basis set group =>   4
Atom  26H    basis set group =>   4
---------------------------------
AUXILIARY/J BASIS SET INFORMATION
---------------------------------
There are 4 groups of distinct atoms

 Group   1 Type C   : 10s7p5d2f1g contracted to 10s7p5d2f1g pattern {1111111111/1111111/11111/11/1}
 Group   2 Type N   : 10s7p5d2f1g contracted to 10s7p5d2f1g pattern {1111111111/1111111/11111/11/1}
 Group   3 Type S   : 13s11p9d3f1g contracted to 13s11p9d3f1g pattern {1111111111111/11111111111/111111111/111/1}
 Group   4 Type H   : 4s3p2d1f contracted to 4s3p2d1f pattern {1111/111/11/1}

Atom   0C    basis set group =>   1
Atom   1C    basis set group =>   1
Atom   2C    basis set group =>   1
Atom   3N    basis set group =>   2
Atom   4C    basis set group =>   1
Atom   5N    basis set group =>   2
Atom   6N    basis set group =>   2
Atom   7C    basis set group =>   1
Atom   8C    basis set group =>   1
Atom   9C    basis set group =>   1
Atom  10C    basis set group =>   1
Atom  11C    basis set group =>   1
Atom  12C    basis set group =>   1
Atom  13C    basis set group =>   1
Atom  14C    basis set group =>   1
Atom  15S    basis set group =>   3
Atom  16S    basis set group =>   3
Atom  17S    basis set group =>   3
Atom  18H    basis set group =>   4
Atom  19H    basis set group =>   4
Atom  20H    basis set group =>   4
Atom  21H    basis set group =>   4
Atom  22H    basis set group =>   4
Atom  23H    basis set group =>   4
Atom  24H    basis set group =>   4
Atom  25H    basis set group =>   4
Atom  26H    basis set group =>   4
---------------------------------
AUXILIARY/C BASIS SET INFORMATION
---------------------------------
There are 4 groups of distinct atoms

 Group   1 Type C   : 9s7p6d4f2g contracted to 9s7p6d4f2g pattern {111111111/1111111/111111/1111/11}
 Group   2 Type N   : 9s7p6d4f2g contracted to 9s7p6d4f2g pattern {111111111/1111111/111111/1111/11}
 Group   3 Type S   : 11s9p8d6f3g contracted to 11s9p8d6f3g pattern {11111111111/111111111/11111111/111111/111}
 Group   4 Type H   : 4s3p2d1f contracted to 4s3p2d1f pattern {1111/111/11/1}

Atom   0C    basis set group =>   1
Atom   1C    basis set group =>   1
Atom   2C    basis set group =>   1
Atom   3N    basis set group =>   2
Atom   4C    basis set group =>   1
Atom   5N    basis set group =>   2
Atom   6N    basis set group =>   2
Atom   7C    basis set group =>   1
Atom   8C    basis set group =>   1
Atom   9C    basis set group =>   1
Atom  10C    basis set group =>   1
Atom  11C    basis set group =>   1
Atom  12C    basis set group =>   1
Atom  13C    basis set group =>   1
Atom  14C    basis set group =>   1
Atom  15S    basis set group =>   3
Atom  16S    basis set group =>   3
Atom  17S    basis set group =>   3
Atom  18H    basis set group =>   4
Atom  19H    basis set group =>   4
Atom  20H    basis set group =>   4
Atom  21H    basis set group =>   4
Atom  22H    basis set group =>   4
Atom  23H    basis set group =>   4
Atom  24H    basis set group =>   4
Atom  25H    basis set group =>   4
Atom  26H    basis set group =>   4


           ************************************************************
           *        Program running with 4 parallel MPI-processes     *
           *              working on a common directory               *
           ************************************************************
------------------------------------------------------------------------------
                           ORCA GTO INTEGRAL CALCULATION
                           -- RI-GTO INTEGRALS CHOSEN --
------------------------------------------------------------------------------
------------------------------------------------------------------------------
                   ___                                                        
                  /   \      - P O W E R E D   B Y -                         
                 /     \                                                     
                 |  |  |   _    _      __       _____    __    __             
                 |  |  |  | |  | |    /  \     |  _  \  |  |  /  |          
                  \  \/   | |  | |   /    \    | | | |  |  | /  /          
                 / \  \   | |__| |  /  /\  \   | |_| |  |  |/  /          
                |  |  |   |  __  | /  /__\  \  |    /   |      \           
                |  |  |   | |  | | |   __   |  |    \   |  |\   \          
                \     /   | |  | | |  |  |  |  | |\  \  |  | \   \       
                 \___/    |_|  |_| |__|  |__|  |_| \__\ |__|  \__/        
                                                                              
                      - O R C A' S   B I G   F R I E N D -                    
                                      &                                       
                       - I N T E G R A L  F E E D E R -                       
                                                                              
 v1 FN, 2020, v2 2021                                                         
------------------------------------------------------------------------------


Reading SHARK input file b3lyp-train-15.SHARKINP.tmp ... ok
----------------------
SHARK INTEGRAL PACKAGE
----------------------

Number of atoms                             ...     27
Number of basis functions                   ...   1131
Number of shells                            ...    447
Maximum angular momentum                    ...      3
Integral batch strategy                     ... SHARK/LIBINT Hybrid
RI-J (if used) integral strategy            ... SPLIT-RIJ (Revised 2003 algorithm where possible)
Printlevel                                  ...      1
Contraction scheme used                     ... PARTIAL GENERAL contraction
Coulomb Range Separation                    ... NOT USED
Exchange Range Separation                   ... NOT USED
Finite Nucleus Model                        ... NOT USED
Auxiliary Coulomb fitting basis             ... AVAILABLE
   # of basis functions in Aux-J            ...   1818
   # of shells in Aux-J                     ...    576
   Maximum angular momentum in Aux-J        ...      4
Auxiliary J/K fitting basis                 ... NOT available
Auxiliary Correlation fitting basis         ... AVAILABLE
   # of basis functions in Aux-C            ...   2301
   # of shells in Aux-C                     ...    621
   Maximum angular momentum in Aux-C        ...      4
Auxiliary 'external' fitting basis          ... NOT available
Integral threshold                          ...     2.500000e-11
Primitive cut-off                           ...     2.500000e-12
Primitive pair pre-selection threshold      ...     2.500000e-12

Calculating pre-screening integrals         ... done (  0.2 sec) Dimension = 447
Calculating pre-screening integrals (ORCA)  ... done (  0.7 sec) Dimension = 312
Organizing shell pair data                  ... done (  0.8 sec)
Shell pair information
Total number of shell pairs                 ...    100128
Shell pairs after pre-screening             ...     56840
Total number of primitive shell pairs       ...    122832
Primitive shell pairs kept                  ...     64064
          la=0 lb=0:  12415 shell pairs
          la=1 lb=0:  15086 shell pairs
          la=1 lb=1:   4113 shell pairs
          la=2 lb=0:   9107 shell pairs
          la=2 lb=1:   4789 shell pairs
          la=2 lb=2:   1452 shell pairs
          la=3 lb=0:   5062 shell pairs
          la=3 lb=1:   2712 shell pairs
          la=3 lb=2:   1627 shell pairs
          la=3 lb=3:    477 shell pairs

Calculating one electron integrals          ... done (  0.2 sec)
Calculating RI/J V-Matrix + Cholesky decomp.... done (  0.2 sec)
Calculating RI/C V-Matrix + Cholesky decomp.... done (  0.4 sec)
Calculating Nuclear repulsion               ... done (  0.0 sec) ENN=   1485.586984744147 Eh

SHARK setup successfully completed in   3.4 seconds

Maximum memory used throughout the entire GTOINT-calculation: 92.0 MB


           ************************************************************
           *        Program running with 4 parallel MPI-processes     *
           *              working on a common directory               *
           ************************************************************
-------------------------------------------------------------------------------
                                 ORCA SCF
-------------------------------------------------------------------------------

------------
SCF SETTINGS
------------
Hamiltonian:
 Density Functional     Method          .... DFT(GTOs)
 Exchange Functional    Exchange        .... B88
   X-Alpha parameter    XAlpha          ....  0.666667
   Becke's b parameter  XBeta           ....  0.004200
 Correlation Functional Correlation     .... LYP
 LDA part of GGA corr.  LDAOpt          .... VWN-5
 Gradients option       PostSCFGGA      .... off
 Hybrid DFT is turned on
   Fraction HF Exchange ScalHFX         ....  0.200000
   Scaling of DF-GGA-X  ScalDFX         ....  0.720000
   Scaling of DF-GGA-C  ScalDFC         ....  0.810000
   Scaling of DF-LDA-C  ScalLDAC        ....  1.000000
   Perturbative correction              ....  0.000000
   Density functional embedding theory  .... OFF
   NL short-range parameter             ....  4.800000
 RI-approximation to the Coulomb term is turned on
   Number of AuxJ basis functions       .... 1818
   RIJ-COSX (HFX calculated with COS-X)).... on


General Settings:
 Integral files         IntName         .... b3lyp-train-15
 Hartree-Fock type      HFTyp           .... RHF
 Total Charge           Charge          ....    0
 Multiplicity           Mult            ....    1
 Number of Electrons    NEL             ....  150
 Basis Dimension        Dim             ....  966
 Nuclear Repulsion      ENuc            ....   1485.5869847441 Eh

Convergence Acceleration:
 DIIS                   CNVDIIS         .... on
   Start iteration      DIISMaxIt       ....    12
   Startup error        DIISStart       ....  0.200000
   # of expansion vecs  DIISMaxEq       ....     5
   Bias factor          DIISBfac        ....   1.050
   Max. coefficient     DIISMaxC        ....  10.000
 Trust-Rad. Augm. Hess. CNVTRAH         .... auto
   Auto Start mean grad. ratio tolernc. ....  1.125000
   Auto Start start iteration           ....    20
   Auto Start num. interpolation iter.  ....    10
   Max. Number of Micro iterations      ....    16
   Max. Number of Macro iterations      .... Maxiter - #DIIS iter
   Number of Davidson start vectors     ....     2
   Converg. threshold I  (grad. norm)   ....   1.000e-05
   Converg. threshold II (energy diff.) ....   1.000e-08
   Grad. Scal. Fac. for Micro threshold ....   0.100
   Minimum threshold for Micro iter.    ....   0.010
   NR start threshold (gradient norm)   ....   0.001
   Initial trust radius                 ....   0.400
   Minimum AH scaling param. (alpha)    ....   1.000
   Maximum AH scaling param. (alpha)    .... 1000.000
   Orbital update algorithm             .... Taylor
   White noise on init. David. guess    .... on
   Maximum white noise                  ....   0.010
   Quad. conv. algorithm                .... NR
 SOSCF                  CNVSOSCF        .... on
   Start iteration      SOSCFMaxIt      ....   150
   Startup grad/error   SOSCFStart      ....  0.003300
 Level Shifting         CNVShift        .... on
   Level shift para.    LevelShift      ....    0.2500
   Turn off err/grad.   ShiftErr        ....    0.0010
 Zerner damping         CNVZerner       .... off
 Static damping         CNVDamp         .... on
   Fraction old density DampFac         ....    0.7000
   Max. Damping (<1)    DampMax         ....    0.9800
   Min. Damping (>=0)   DampMin         ....    0.0000
   Turn off err/grad.   DampErr         ....    0.1000
 Fernandez-Rico         CNVRico         .... off

SCF Procedure:
 Maximum # iterations   MaxIter         ....   125
 SCF integral mode      SCFMode         .... Direct
   Integral package                     .... SHARK and LIBINT hybrid scheme
 Reset frequency        DirectResetFreq ....    20
 Integral Threshold     Thresh          ....  2.500e-11 Eh
 Primitive CutOff       TCut            ....  2.500e-12 Eh

Convergence Tolerance:
 Convergence Check Mode ConvCheckMode   .... Total+1el-Energy
 Convergence forced     ConvForced      .... 0
 Energy Change          TolE            ....  1.000e-08 Eh
 1-El. energy change                    ....  1.000e-05 Eh
 Orbital Gradient       TolG            ....  1.000e-05
 Orbital Rotation angle TolX            ....  1.000e-05
 DIIS Error             TolErr          ....  5.000e-07


Diagonalization of the overlap matrix:
Smallest eigenvalue                        ... 1.484e-06
Time for diagonalization                   ...    0.306 sec
Threshold for overlap eigenvalues          ... 1.000e-08
Number of eigenvalues below threshold      ... 0
Time for construction of square roots      ...    0.145 sec
Total time needed                          ...    0.456 sec

Time for model grid setup =    0.614 sec

------------------------------
INITIAL GUESS: MODEL POTENTIAL
------------------------------
Loading Hartree-Fock densities                     ... done
Calculating cut-offs                               ... done
Initializing the effective Hamiltonian             ... done
Setting up the integral package (SHARK)            ... done
Starting the Coulomb interaction                   ... done (   1.7 sec)
Reading the grid                                   ... done
Mapping shells                                     ... done
Starting the XC term evaluation                    ... done (   1.6 sec)
  promolecular density results
     # of electrons  =    149.995041599
     EX              =   -159.264432634
     EC              =     -5.475809318
     EX+EC           =   -164.740241952
Transforming the Hamiltonian                       ... done (   0.1 sec)
Diagonalizing the Hamiltonian                      ... done (   0.3 sec)
Back transforming the eigenvectors                 ... done (   0.0 sec)
Now organizing SCF variables                       ... done
                      ------------------
                      INITIAL GUESS DONE (   4.5 sec)
                      ------------------
-------------------
DFT GRID GENERATION
-------------------

General Integration Accuracy     IntAcc      ... 4.388
Radial Grid Type                 RadialGrid  ... OptM3 with GC (2021)
Angular Grid (max. ang.)         AngularGrid ... 4 (Lebedev-302)
Angular grid pruning method      GridPruning ... 4 (adaptive)
Weight generation scheme         WeightScheme... Becke
Basis function cutoff            BFCut       ... 1.0000e-11
Integration weight cutoff        WCut        ... 1.0000e-14
Angular grids for H and He will be reduced by one unit
Partially contracted basis set               ... off
Rotationally invariant grid construction     ... off

Total number of grid points                  ...   145831
Total number of batches                      ...     2293
Average number of points per batch           ...       63
Average number of grid points per atom       ...     5401
Time for grid setup =    2.120 sec

--------------------
COSX GRID GENERATION
--------------------

GRIDX 1
-------
General Integration Accuracy     IntAcc      ... 3.816
Radial Grid Type                 RadialGrid  ... OptM3 with GC (2021)
Angular Grid (max. ang.)         AngularGrid ... 1 (Lebedev-50)
Angular grid pruning method      GridPruning ... 4 (adaptive)
Weight generation scheme         WeightScheme... Becke
Basis function cutoff            BFCut       ... 1.0000e-11
Integration weight cutoff        WCut        ... 1.0000e-14
Angular grids for H and He will be reduced by one unit
Partially contracted basis set               ... on
Rotationally invariant grid construction     ... off

Total number of grid points                  ...    18267
Total number of batches                      ...      301
Average number of points per batch           ...       60
Average number of grid points per atom       ...      677
UseSFitting                                  ... on

GRIDX 2
-------
General Integration Accuracy     IntAcc      ... 4.020
Radial Grid Type                 RadialGrid  ... OptM3 with GC (2021)
Angular Grid (max. ang.)         AngularGrid ... 2 (Lebedev-110)
Angular grid pruning method      GridPruning ... 4 (adaptive)
Weight generation scheme         WeightScheme... Becke
Basis function cutoff            BFCut       ... 1.0000e-11
Integration weight cutoff        WCut        ... 1.0000e-14
Angular grids for H and He will be reduced by one unit
Partially contracted basis set               ... on
Rotationally invariant grid construction     ... off

Total number of grid points                  ...    44672
Total number of batches                      ...      713
Average number of points per batch           ...       62
Average number of grid points per atom       ...     1655
UseSFitting                                  ... on

GRIDX 3
-------
General Integration Accuracy     IntAcc      ... 4.338
Radial Grid Type                 RadialGrid  ... OptM3 with GC (2021)
Angular Grid (max. ang.)         AngularGrid ... 3 (Lebedev-194)
Angular grid pruning method      GridPruning ... 4 (adaptive)
Weight generation scheme         WeightScheme... Becke
Basis function cutoff            BFCut       ... 1.0000e-11
Integration weight cutoff        WCut        ... 1.0000e-14
Angular grids for H and He will be reduced by one unit
Partially contracted basis set               ... on
Rotationally invariant grid construction     ... off

Total number of grid points                  ...    98478
Total number of batches                      ...     1551
Average number of points per batch           ...       63
Average number of grid points per atom       ...     3647
UseSFitting                                  ... on

Time for X-Grid setup             =    4.763 sec


--------------------
CPCM SOLVATION MODEL
--------------------
CPCM parameters:
  Epsilon                                         ...      46.8260
  Refrac                                          ...       1.4170
  Rsolv                                           ...       1.3000
  Surface type                                    ... GAUSSIAN VDW
  Epsilon function type                           ...         CPCM
Solvent:                                     ... DIMETHYLSULFOXIDE
SMD-CDS solvent descriptors:
  Soln                                       ...    1.4170
  Soln25                                     ...    1.4773
  Sola                                       ...    0.0000
  Solb                                       ...    0.8800
  Solg                                       ...   61.7800
  Solc                                       ...    0.0000
  Solh                                       ...    0.0000
Radii:
 Radius for C  used is    3.4960 Bohr (=   1.8500 Ang.)
 Radius for N  used is    3.5716 Bohr (=   1.8900 Ang.)
 Radius for S  used is    4.7054 Bohr (=   2.4900 Ang.)
 Radius for H  used is    2.2677 Bohr (=   1.2000 Ang.)
Calculating surface                               ...        done! (  0.0s)
GEPOL surface points                              ...         1465
GEPOL Volume                                      ...    2155.4536
GEPOL Surface-area                                ...    1112.2083
Calculating surface distance matrix               ...        done! (  0.0s)
Performing Cholesky decomposition & store         ...        done! (  0.1s)
Overall time for CPCM initialization              ...                 0.1s
 re-compute Schwartz prescreening matrix in partically contracted basis (1) ...done (   0.217 sec)
--------------
SCF ITERATIONS
--------------
ITER       Energy         Delta-E        Max-DP      RMS-DP      [F,P]     Damp
               ***  Starting incremental Fock matrix formation  ***
  0  -1820.7049325230   0.000000000000 0.13617626  0.00082197  0.2443811 0.7000
  1  -1820.9591907226  -0.254258199598 0.09041374  0.00057895  0.1031333 0.7000
                               ***Turning on DIIS***
  2  -1821.0537712113  -0.094580488756 0.18434894  0.00112832  0.0373892 0.0000
  3  -1821.1818150388  -0.128043827485 0.02707830  0.00031149  0.0584451 0.0000
  4  -1821.2288399294  -0.047024890608 0.01901614  0.00015223  0.0159063 0.0000
  5  -1821.2316576030  -0.002817673633 0.00842934  0.00005453  0.0117484 0.0000
                      *** Initiating the SOSCF procedure ***
                           *** Shutting down DIIS ***
                      *** Re-Reading the Fockian *** 
                      *** Removing any level shift *** 
ITER      Energy       Delta-E        Grad      Rot      Max-DP    RMS-DP
  6  -1821.23211342  -0.0004558202  0.000463  0.000463  0.002941  0.000024
               *** Restarting incremental Fock matrix formation ***
  7  -1821.23215157  -0.0000381467  0.000299  0.002514  0.013324  0.000153
  8  -1821.23215773  -0.0000061619  0.000320  0.000937  0.004840  0.000058
  9  -1821.23216164  -0.0000039118  0.000209  0.000523  0.004716  0.000054
 10  -1821.23216274  -0.0000010977  0.000077  0.000264  0.001588  0.000017
 11  -1821.23216323  -0.0000004849  0.000044  0.000315  0.001396  0.000018
 12  -1821.23216336  -0.0000001359  0.000026  0.000148  0.001747  0.000009
 13  -1821.23216345  -0.0000000876  0.000011  0.000045  0.001378  0.000012
 14  -1821.23216349  -0.0000000408  0.000011  0.000023  0.001624  0.000012
 15  -1821.23216350  -0.0000000055  0.000005  0.000016  0.001722  0.000014
                  ***Gradient check signals convergence***
              ***Rediagonalizing the Fockian in SOSCF/NRSCF***

               *****************************************************
               *                     SUCCESS                       *
               *           SCF CONVERGED AFTER  16 CYCLES          *
               *****************************************************

Old exchange energy                            =    -32.054364805 Eh
New exchange energy                            =    -32.054283127 Eh
Exchange energy change after final integration =      0.000081677 Eh
Total energy after final integration           =  -1821.232081819 Eh
Final COS-X integration done in                =    97.505 sec

SMD CDS free energy correction energy :                 0.54159     Kcal/mol
Total Energy after SMD CDS correction =             -1821.231218742 Eh

----------------
TOTAL SCF ENERGY
----------------

Total Energy       :        -1821.23121874 Eh          -49558.22095 eV

Components:
Nuclear Repulsion  :         1485.58698474 Eh           40424.87702 eV
Electronic Energy  :        -3306.81820349 Eh          -89983.09797 eV
One Electron Energy:        -5452.54759967 Eh         -148371.36324 eV
Two Electron Energy:         2145.72939619 Eh           58388.26527 eV
Max COSX asymmetry :            0.00001797 Eh               0.00049 eV
CPCM Dielectric    :           -0.02214898 Eh              -0.60270 eV
SMD CDS (Gcds)     :            0.00086308 Eh               0.02349 eV

Virial components:
Potential Energy   :        -3635.94574991 Eh          -98939.11382 eV
Kinetic Energy     :         1814.71453117 Eh           49380.89287 eV
Virial Ratio       :            2.00359103


DFT components:
N(Alpha)           :       75.000009508270 electrons
N(Beta)            :       75.000009508270 electrons
N(Total)           :      150.000019016541 electrons
E(X)               :     -127.399427737508 Eh       
E(C)               :       -6.431294265739 Eh       
E(XC)              :     -133.830722003247 Eh       
DFET-embed. en.    :        0.000000000000 Eh       
CPCM Solvation Model Properties:
Surface-charge          :           -0.04560758
Charge-correction       :           -0.00003929 Eh              -0.00107 eV
Free-energy (cav+disp)  :            0.00086308 Eh               0.02349 eV

---------------
SCF CONVERGENCE
---------------

  Last Energy change         ...   -1.7963e-11  Tolerance :   1.0000e-08
  Last MAX-Density change    ...    3.9968e-15  Tolerance :   1.0000e-07
  Last RMS-Density change    ...    1.7824e-17  Tolerance :   5.0000e-09
  Last Orbital Gradient      ...    2.1766e-06  Tolerance :   1.0000e-05
  Last Orbital Rotation      ...    7.2647e-06  Tolerance :   1.0000e-05

             **** THE GBW FILE WAS UPDATED (b3lyp-train-15.gbw) ****
             **** DENSITY b3lyp-train-15.scfp WAS UPDATED ****
             **** ENERGY FILE WAS UPDATED (b3lyp-train-15.en.tmp) ****
             **** THE GBW FILE WAS UPDATED (b3lyp-train-15.gbw) ****
             **** DENSITY b3lyp-train-15.scfp WAS UPDATED ****
----------------
ORBITAL ENERGIES
----------------

  NO   OCC          E(Eh)            E(eV) 
   0   2.0000     -88.930040     -2419.9094 
   1   2.0000     -88.925840     -2419.7951 
   2   2.0000     -88.919689     -2419.6278 
   3   2.0000     -14.375803      -391.1855 
   4   2.0000     -14.364577      -390.8800 
   5   2.0000     -14.324986      -389.8027 
   6   2.0000     -10.259214      -279.1674 
   7   2.0000     -10.239539      -278.6320 
   8   2.0000     -10.235562      -278.5238 
   9   2.0000     -10.221102      -278.1303 
  10   2.0000     -10.217970      -278.0451 
  11   2.0000     -10.206308      -277.7278 
  12   2.0000     -10.200778      -277.5773 
  13   2.0000     -10.193699      -277.3847 
  14   2.0000     -10.191654      -277.3290 
  15   2.0000     -10.185864      -277.1715 
  16   2.0000     -10.181491      -277.0524 
  17   2.0000     -10.171096      -276.7696 
  18   2.0000      -7.981757      -217.1946 
  19   2.0000      -7.977304      -217.0735 
  20   2.0000      -7.970595      -216.8909 
  21   2.0000      -5.945266      -161.7789 
  22   2.0000      -5.941858      -161.6862 
  23   2.0000      -5.940822      -161.6580 
  24   2.0000      -5.938988      -161.6081 
  25   2.0000      -5.937190      -161.5592 
  26   2.0000      -5.934852      -161.4955 
  27   2.0000      -5.933772      -161.4661 
  28   2.0000      -5.930737      -161.3836 
  29   2.0000      -5.928267      -161.3163 
  30   2.0000      -1.048095       -28.5201 
  31   2.0000      -0.976514       -26.5723 
  32   2.0000      -0.913001       -24.8440 
  33   2.0000      -0.889623       -24.2079 
  34   2.0000      -0.836112       -22.7518 
  35   2.0000      -0.816065       -22.2063 
  36   2.0000      -0.771031       -20.9808 
  37   2.0000      -0.757960       -20.6252 
  38   2.0000      -0.744038       -20.2463 
  39   2.0000      -0.731192       -19.8967 
  40   2.0000      -0.702175       -19.1072 
  41   2.0000      -0.673767       -18.3341 
  42   2.0000      -0.606758       -16.5107 
  43   2.0000      -0.606385       -16.5006 
  44   2.0000      -0.568879       -15.4800 
  45   2.0000      -0.562182       -15.2978 
  46   2.0000      -0.541866       -14.7449 
  47   2.0000      -0.532631       -14.4936 
  48   2.0000      -0.521584       -14.1930 
  49   2.0000      -0.491535       -13.3753 
  50   2.0000      -0.467740       -12.7279 
  51   2.0000      -0.463558       -12.6141 
  52   2.0000      -0.460889       -12.5414 
  53   2.0000      -0.435980       -11.8636 
  54   2.0000      -0.433048       -11.7838 
  55   2.0000      -0.419333       -11.4106 
  56   2.0000      -0.417229       -11.3534 
  57   2.0000      -0.409077       -11.1315 
  58   2.0000      -0.406095       -11.0504 
  59   2.0000      -0.405525       -11.0349 
  60   2.0000      -0.396437       -10.7876 
  61   2.0000      -0.384329       -10.4581 
  62   2.0000      -0.374232       -10.1834 
  63   2.0000      -0.366789        -9.9808 
  64   2.0000      -0.361400        -9.8342 
  65   2.0000      -0.354625        -9.6498 
  66   2.0000      -0.348069        -9.4714 
  67   2.0000      -0.298566        -8.1244 
  68   2.0000      -0.289852        -7.8873 
  69   2.0000      -0.287925        -7.8348 
  70   2.0000      -0.276636        -7.5277 
  71   2.0000      -0.265001        -7.2110 
  72   2.0000      -0.251053        -6.8315 
  73   2.0000      -0.248320        -6.7571 
  74   2.0000      -0.200276        -5.4498 
  75   0.0000      -0.117175        -3.1885 
  76   0.0000      -0.051768        -1.4087 
  77   0.0000      -0.010533        -0.2866 
  78   0.0000      -0.004965        -0.1351 
  79   0.0000      -0.000009        -0.0002 
  80   0.0000       0.002047         0.0557 
  81   0.0000       0.008485         0.2309 
  82   0.0000       0.014569         0.3964 
  83   0.0000       0.015049         0.4095 
  84   0.0000       0.016460         0.4479 
  85   0.0000       0.020426         0.5558 
  86   0.0000       0.023682         0.6444 
  87   0.0000       0.030076         0.8184 
  88   0.0000       0.031778         0.8647 
  89   0.0000       0.035338         0.9616 
  90   0.0000       0.036725         0.9993 
  91   0.0000       0.037336         1.0160 
  92   0.0000       0.041699         1.1347 
  93   0.0000       0.041940         1.1412 
  94   0.0000       0.051574         1.4034 
  95   0.0000       0.052163         1.4194 
  96   0.0000       0.054028         1.4702 
  97   0.0000       0.057943         1.5767 
  98   0.0000       0.058357         1.5880 
  99   0.0000       0.059936         1.6309 
 100   0.0000       0.064125         1.7449 
 101   0.0000       0.066877         1.8198 
 102   0.0000       0.072263         1.9664 
 103   0.0000       0.077733         2.1152 
 104   0.0000       0.078457         2.1349 
 105   0.0000       0.085036         2.3140 
 106   0.0000       0.087941         2.3930 
 107   0.0000       0.089794         2.4434 
 108   0.0000       0.093676         2.5491 
 109   0.0000       0.098125         2.6701 
 110   0.0000       0.101133         2.7520 
 111   0.0000       0.101871         2.7720 
 112   0.0000       0.109199         2.9714 
 113   0.0000       0.109823         2.9884 
 114   0.0000       0.110831         3.0159 
 115   0.0000       0.112723         3.0673 
 116   0.0000       0.113662         3.0929 
 117   0.0000       0.119010         3.2384 
 118   0.0000       0.125033         3.4023 
 119   0.0000       0.128807         3.5050 
 120   0.0000       0.129019         3.5108 
 121   0.0000       0.130001         3.5375 
 122   0.0000       0.130966         3.5638 
 123   0.0000       0.135233         3.6799 
 124   0.0000       0.140009         3.8098 
 125   0.0000       0.140894         3.8339 
 126   0.0000       0.144772         3.9394 
 127   0.0000       0.146274         3.9803 
 128   0.0000       0.148167         4.0318 
 129   0.0000       0.149526         4.0688 
 130   0.0000       0.151112         4.1120 
 131   0.0000       0.151704         4.1281 
 132   0.0000       0.159545         4.3415 
 133   0.0000       0.161654         4.3988 
 134   0.0000       0.163166         4.4400 
 135   0.0000       0.164901         4.4872 
 136   0.0000       0.165358         4.4996 
 137   0.0000       0.169230         4.6050 
 138   0.0000       0.170571         4.6415 
 139   0.0000       0.172192         4.6856 
 140   0.0000       0.180583         4.9139 
 141   0.0000       0.181345         4.9346 
 142   0.0000       0.183854         5.0029 
 143   0.0000       0.187077         5.0906 
 144   0.0000       0.191724         5.2171 
 145   0.0000       0.192913         5.2494 
 146   0.0000       0.194197         5.2844 
 147   0.0000       0.202224         5.5028 
 148   0.0000       0.202976         5.5232 
 149   0.0000       0.204680         5.5696 
 150   0.0000       0.206504         5.6193 
 151   0.0000       0.214495         5.8367 
 152   0.0000       0.215905         5.8751 
 153   0.0000       0.217605         5.9213 
 154   0.0000       0.219663         5.9773 
 155   0.0000       0.226489         6.1631 
 156   0.0000       0.228420         6.2156 
 157   0.0000       0.228769         6.2251 
 158   0.0000       0.237486         6.4623 
 159   0.0000       0.239102         6.5063 
 160   0.0000       0.243074         6.6144 
 161   0.0000       0.245913         6.6916 
 162   0.0000       0.248416         6.7598 
 163   0.0000       0.249309         6.7840 
 164   0.0000       0.255274         6.9464 
 165   0.0000       0.255898         6.9633 
 166   0.0000       0.258727         7.0403 
 167   0.0000       0.260583         7.0908 
 168   0.0000       0.262760         7.1501 
 169   0.0000       0.266083         7.2405 
 170   0.0000       0.272142         7.4053 
 171   0.0000       0.272738         7.4216 
 172   0.0000       0.273136         7.4324 
 173   0.0000       0.276365         7.5203 
 174   0.0000       0.281916         7.6713 
 175   0.0000       0.284712         7.7474 
 176   0.0000       0.286903         7.8070 
 177   0.0000       0.288075         7.8389 
 178   0.0000       0.293746         7.9932 
 179   0.0000       0.299751         8.1566 
 180   0.0000       0.305354         8.3091 
 181   0.0000       0.309963         8.4345 
 182   0.0000       0.311793         8.4843 
 183   0.0000       0.312779         8.5112 
 184   0.0000       0.315188         8.5767 
 185   0.0000       0.317425         8.6376 
 186   0.0000       0.326571         8.8864 
 187   0.0000       0.331625         9.0240 
 188   0.0000       0.331972         9.0334 
 189   0.0000       0.338529         9.2118 
 190   0.0000       0.339061         9.2263 
 191   0.0000       0.340157         9.2561 
 192   0.0000       0.345073         9.3899 
 193   0.0000       0.347781         9.4636 
 194   0.0000       0.349456         9.5092 
 195   0.0000       0.352609         9.5950 
 196   0.0000       0.357260         9.7215 
 197   0.0000       0.358559         9.7569 
 198   0.0000       0.362177         9.8553 
 199   0.0000       0.363209         9.8834 
 200   0.0000       0.365241         9.9387 
 201   0.0000       0.369912        10.0658 
 202   0.0000       0.373491        10.1632 
 203   0.0000       0.379333        10.3222 
 204   0.0000       0.380495        10.3538 
 205   0.0000       0.382538        10.4094 
 206   0.0000       0.387393        10.5415 
 207   0.0000       0.388677        10.5764 
 208   0.0000       0.392945        10.6926 
 209   0.0000       0.395955        10.7745 
 210   0.0000       0.400279        10.8921 
 211   0.0000       0.403610        10.9828 
 212   0.0000       0.405855        11.0439 
 213   0.0000       0.408032        11.1031 
 214   0.0000       0.410164        11.1611 
 215   0.0000       0.413418        11.2497 
 216   0.0000       0.415433        11.3045 
 217   0.0000       0.416513        11.3339 
 218   0.0000       0.421270        11.4633 
 219   0.0000       0.426637        11.6094 
 220   0.0000       0.429205        11.6793 
 221   0.0000       0.435705        11.8561 
 222   0.0000       0.437872        11.9151 
 223   0.0000       0.441668        12.0184 
 224   0.0000       0.442545        12.0423 
 225   0.0000       0.445195        12.1144 
 226   0.0000       0.447376        12.1737 
 227   0.0000       0.449047        12.2192 
 228   0.0000       0.453911        12.3515 
 229   0.0000       0.454822        12.3763 
 230   0.0000       0.459577        12.5057 
 231   0.0000       0.461920        12.5695 
 232   0.0000       0.465801        12.6751 
 233   0.0000       0.468452        12.7472 
 234   0.0000       0.474646        12.9158 
 235   0.0000       0.477713        12.9992 
 236   0.0000       0.479509        13.0481 
 237   0.0000       0.486614        13.2414 
 238   0.0000       0.491550        13.3758 
 239   0.0000       0.495410        13.4808 
 240   0.0000       0.498231        13.5576 
 241   0.0000       0.500308        13.6141 
 242   0.0000       0.504211        13.7203 
 243   0.0000       0.505988        13.7686 
 244   0.0000       0.511405        13.9160 
 245   0.0000       0.512033        13.9331 
 246   0.0000       0.514149        13.9907 
 247   0.0000       0.519007        14.1229 
 248   0.0000       0.520071        14.1518 
 249   0.0000       0.522462        14.2169 
 250   0.0000       0.535035        14.5590 
 251   0.0000       0.539984        14.6937 
 252   0.0000       0.542863        14.7720 
 253   0.0000       0.544932        14.8284 
 254   0.0000       0.548622        14.9288 
 255   0.0000       0.555784        15.1236 
 256   0.0000       0.557466        15.1694 
 257   0.0000       0.559111        15.2142 
 258   0.0000       0.561985        15.2924 
 259   0.0000       0.562991        15.3198 
 260   0.0000       0.571330        15.5467 
 261   0.0000       0.575489        15.6599 
 262   0.0000       0.576515        15.6878 
 263   0.0000       0.579063        15.7571 
 264   0.0000       0.589330        16.0365 
 265   0.0000       0.592561        16.1244 
[...]
B(  7-C , 10-C ) :  -0.1993 B(  7-C , 16-S ) :   0.7956 B(  8-C ,  9-C ) :   0.9139 
B(  8-C , 16-S ) :   0.1189 B(  8-C , 22-H ) :   1.0645 B(  9-C , 10-C ) :   0.3118 
B(  9-C , 11-C ) :   0.1857 B(  9-C , 16-S ) :   0.2117 B(  9-C , 23-H ) :   1.1005 
B( 10-C , 11-C ) :   0.3984 B( 10-C , 13-C ) :   0.1168 B( 10-C , 15-S ) :   0.1491 
B( 10-C , 16-S ) :   0.7604 B( 10-C , 23-H ) :  -0.1232 B( 11-C , 12-C ) :   0.6857 
B( 11-C , 13-C ) :  -0.1989 B( 11-C , 14-C ) :  -0.1010 B( 11-C , 15-S ) :   0.4183 
B( 12-C , 13-C ) :   1.1459 B( 12-C , 14-C ) :   0.1643 B( 12-C , 15-S ) :   0.2186 
B( 12-C , 24-H ) :   1.0702 B( 13-C , 14-C ) :   1.3231 B( 13-C , 15-S ) :   0.1242 
B( 13-C , 25-H ) :   0.9714 B( 14-C , 15-S ) :   1.1045 B( 14-C , 26-H ) :   1.0059 


-------
TIMINGS
-------

Total SCF time: 0 days 0 hours 3 min 43 sec 

Total time                  ....     223.903 sec
Sum of individual times     ....     220.667 sec  ( 98.6%)

Fock matrix formation       ....     212.690 sec  ( 95.0%)
  Split-RI-J                ....      11.770 sec  (  5.5% of F)
  Chain of spheres X        ....     185.703 sec  ( 87.3% of F)
  XC integration            ....       9.142 sec  (  4.3% of F)
    Basis function eval.    ....       1.646 sec  ( 18.0% of XC)
    Density eval.           ....       3.706 sec  ( 40.5% of XC)
    XC-Functional eval.     ....       0.112 sec  (  1.2% of XC)
    XC-Potential eval.      ....       3.420 sec  ( 37.4% of XC)
Diagonalization             ....       0.479 sec  (  0.2%)
Density matrix formation    ....       0.045 sec  (  0.0%)
Population analysis         ....       0.325 sec  (  0.1%)
Initial guess               ....       0.513 sec  (  0.2%)
Orbital Transformation      ....       0.000 sec  (  0.0%)
Orbital Orthonormalization  ....       0.458 sec  (  0.2%)
DIIS solution               ....       0.175 sec  (  0.1%)
SOSCF solution              ....       0.351 sec  (  0.2%)
Grid generation             ....       6.089 sec  (  2.7%)

Maximum memory used throughout the entire SCF-calculation: 245.7 MB


           ************************************************************
           *        Program running with 4 parallel MPI-processes     *
           *              working on a common directory               *
           ************************************************************
------------------------------------------------------------------------------
                        ORCA TD-DFT/TDA CALCULATION
------------------------------------------------------------------------------

Input orbitals are from        ... b3lyp-train-15_job2.gbw
CI-vector output               ... b3lyp-train-15_job2.cis
Tamm-Dancoff approximation     ... operative
CIS-Integral strategy          ... AO-integrals
Integral handling              ... AO integral Direct
Max. core memory used          ... 4000 MB
Reference state                ... RHF
Generation of triplets         ... off
Follow IRoot                   ... off
Number of operators            ... 1
Orbital ranges used for CIS calculation:
 Operator 0:  Orbitals  30... 74  to  75...965
XAS localization array:
 Operator 0:  Orbitals  -1... -1

-------------------
XC-INTEGRATION GRID
-------------------

General Integration Accuracy     IntAcc      ... 3.467
Radial Grid Type                 RadialGrid  ... OptM3 with GC (2021)
Angular Grid (max. ang.)         AngularGrid ... 1 (Lebedev-50)
Angular grid pruning method      GridPruning ... 4 (adaptive)
Weight generation scheme         WeightScheme... Becke
Basis function cutoff            BFCut       ... 1.0000e-11
Integration weight cutoff        WCut        ... 1.0000e-14
Angular grids for H and He will be reduced by one unit
Partially contracted basis set               ... off
Rotationally invariant grid construction     ... off

Total number of grid points                  ...    22090
Total number of batches                      ...      357
Average number of points per batch           ...       61
Average number of grid points per atom       ...      818

---------------------
COSX-INTEGRATION GRID
---------------------

General Integration Accuracy     IntAcc      ... 3.067
Radial Grid Type                 RadialGrid  ... OptM3 with GC (2021)
Angular Grid (max. ang.)         AngularGrid ... 1 (Lebedev-50)
Angular grid pruning method      GridPruning ... 4 (adaptive)
Weight generation scheme         WeightScheme... Becke
Basis function cutoff            BFCut       ... 1.0000e-11
Integration weight cutoff        WCut        ... 1.0000e-14
Angular grids for H and He will be reduced by one unit
Partially contracted basis set               ... on
Rotationally invariant grid construction     ... off

Total number of grid points                  ...     9950
Total number of batches                      ...      170
Average number of points per batch           ...       58
Average number of grid points per atom       ...      369

---------------
TD-DFT XC SETUP
---------------

DFT calculation                         ... on
Name of the grid file                   ... b3lyp-train-15_job2.grid_cis.tmp
Exchange functional (TD-DFT)            ... B88
   X-Alpha parameter    XAlpha (TD-DFT) ...  0.666667
   Becke's b parameter  XBeta (TD-DFT)  ...  0.004200
Correlation functional (TD-DFT)         ... LYP
 LDA part of GGA corr.  LDAOpt (TD-DFT) ... VWN-5
Hybrid DFT                              ... on
   Exchange mixing (TD-DFT)             ...  0.200
   GGA exch. scaling (TD-DFT)           ...  0.720
   GGA corr. scaling (TD-DFT)           ...  0.810

Building densities             ... done
Calculating rho(r) on the grid ... done
Building xc-kernel on the grid ... done
                    *** TD-DFT CALCULATION INITIALIZED ***

---------------------------------
    LR-CPCM (non-equilibrium)
---------------------------------

Setting up LR-CPCM             ... done

------------------------
DAVIDSON-DIAGONALIZATION
------------------------

Dimension of the eigenvalue problem            ...  40095
Number of roots to be determined               ...     10
Maximum size of the expansion space            ...     70
Maximum number of iterations                   ...    100
Convergence tolerance for the residual         ...    1.000e-06
Convergence tolerance for the energies         ...    1.000e-06
Orthogonality tolerance                        ...    1.000e-14
Level Shift                                    ...    0.000e+00
Constructing the preconditioner                ... o.k.
Building the initial guess                     ... o.k.
Number of trial vectors determined             ...     70


                       ****Iteration    0****

   Memory handling for direct AO based CIS:
   Memory per vector needed      ...    42 MB
   Memory needed                 ...  1281 MB
   Memory available              ...  4000 MB
   Number of vectors per batch   ...    93
   Number of batches             ...     1
   Time for densities:            0.498
   Time for RI-J (Direct):       13.743
   Time for K (COSX):            88.745
   Time for XC-Integration:      32.164
   Time for LR-CPCM terms:       14.697
   Time for Sigma-Completion:     0.386
   Size of expansion space: 30
   Lowest Energy          :     0.099894112055
   Maximum Energy change  :     0.177811503177 (vector 9)
   Maximum residual norm  :     0.012648283176

                       ****Iteration    1****
   Time for densities:            0.174
   Time for RI-J (Direct):        7.989
   Time for K (COSX):            31.165
   Time for XC-Integration:      11.330
   Time for LR-CPCM terms:        7.001
   Time for Sigma-Completion:     0.135
   Size of expansion space: 40
   Lowest Energy          :     0.092471696636
   Maximum Energy change  :     0.014953231890 (vector 6)
   Maximum residual norm  :     0.000781604041

                       ****Iteration    2****
   Time for densities:            0.180
   Time for RI-J (Direct):        8.123
   Time for K (COSX):            31.633
   Time for XC-Integration:      11.609
   Time for LR-CPCM terms:        7.018
   Time for Sigma-Completion:     0.134
   Size of expansion space: 50
   Lowest Energy          :     0.092029148388
   Maximum Energy change  :     0.000896684638 (vector 6)
   Maximum residual norm  :     0.000057347383

                       ****Iteration    3****
   Time for densities:            0.174
   Time for RI-J (Direct):        8.140
   Time for K (COSX):            31.089
   Time for XC-Integration:      11.291
   Time for LR-CPCM terms:        6.928
   Time for Sigma-Completion:     0.128
   Size of expansion space: 60
   Lowest Energy          :     0.091999032993
   Maximum Energy change  :     0.000072706449 (vector 7)
   Maximum residual norm  :     0.000003541760

                       ****Iteration    4****
   Time for densities:            0.179
   Time for RI-J (Direct):        8.084
   Time for K (COSX):            31.157
   Time for XC-Integration:      11.621
   Time for LR-CPCM terms:        7.007
   Time for Sigma-Completion:     0.133
   Size of expansion space: 70
   Lowest Energy          :     0.091998128563
   Maximum Energy change  :     0.000004399427 (vector 6)
   Maximum residual norm  :     0.000000198421

      *** CONVERGENCE OF RESIDUAL NORM REACHED ***

Storing the converged CI vectors               ... b3lyp-train-15_job2.cis1

                 *** DAVIDSON DONE ***

Total time for solving the CIS problem:   384.269sec

------------------------------------
TD-DFT/TDA EXCITED STATES (SINGLETS)
------------------------------------

the weight of the individual excitations are printed if larger than 1.0e-02

STATE  1:  E=   0.091998 au      2.503 eV    20191.3 cm**-1 <S**2> =   0.000000
    72a ->  75a  :     0.010108 (c= -0.10053621)
    74a ->  75a  :     0.952569 (c= -0.97599665)

STATE  2:  E=   0.098061 au      2.668 eV    21521.8 cm**-1 <S**2> =   0.000000
    72a ->  75a  :     0.964934 (c= -0.98231060)
    72a ->  76a  :     0.010879 (c=  0.10430037)

STATE  3:  E=   0.124022 au      3.375 eV    27219.6 cm**-1 <S**2> =   0.000000
    73a ->  75a  :     0.817153 (c=  0.90396533)
    74a ->  76a  :     0.141816 (c=  0.37658488)

STATE  4:  E=   0.132826 au      3.614 eV    29151.9 cm**-1 <S**2> =   0.000000
    70a ->  75a  :     0.012450 (c= -0.11158105)
    71a ->  75a  :     0.953180 (c=  0.97630919)
    74a ->  76a  :     0.017994 (c= -0.13414205)

STATE  5:  E=   0.140792 au      3.831 eV    30900.4 cm**-1 <S**2> =   0.000000
    69a ->  75a  :     0.013125 (c= -0.11456477)
    70a ->  75a  :     0.687942 (c=  0.82942283)
    71a ->  75a  :     0.030002 (c=  0.17320974)
    73a ->  75a  :     0.028795 (c= -0.16969007)
    74a ->  76a  :     0.211464 (c=  0.45985225)

STATE  6:  E=   0.145976 au      3.972 eV    32037.9 cm**-1 <S**2> =   0.000000
    68a ->  75a  :     0.975038 (c=  0.98744000)
    68a ->  76a  :     0.012471 (c= -0.11167147)

STATE  7:  E=   0.147726 au      4.020 eV    32422.1 cm**-1 <S**2> =   0.000000
    69a ->  75a  :     0.133557 (c= -0.36545515)
    70a ->  75a  :     0.256626 (c= -0.50658233)
    73a ->  75a  :     0.057401 (c= -0.23958497)
    74a ->  76a  :     0.493719 (c=  0.70265137)

STATE  8:  E=   0.156325 au      4.254 eV    34309.3 cm**-1 <S**2> =   0.000000
    69a ->  75a  :     0.800163 (c=  0.89451823)
    70a ->  75a  :     0.010826 (c= -0.10404657)
    73a ->  75a  :     0.040807 (c= -0.20200654)
    74a ->  76a  :     0.093979 (c=  0.30656073)

STATE  9:  E=   0.165640 au      4.507 eV    36353.9 cm**-1 <S**2> =   0.000000
    67a ->  75a  :     0.721454 (c= -0.84938452)
    73a ->  76a  :     0.031536 (c=  0.17758380)
    74a ->  77a  :     0.213260 (c= -0.46180071)

STATE 10:  E=   0.175167 au      4.767 eV    38444.8 cm**-1 <S**2> =   0.000000
    72a ->  75a  :     0.010554 (c=  0.10273405)
    72a ->  76a  :     0.940089 (c=  0.96958164)
    72a ->  77a  :     0.022711 (c= -0.15070063)


-----------------------------
TD-DFT/TDA-EXCITATION SPECTRA
-----------------------------

Center of mass = (  0.6763, -0.1224, -0.5530)
Calculating the Dipole integrals                  ... done
Transforming integrals                            ... done
Calculating the Linear Momentum integrals         ... done
Transforming integrals                            ... done
Calculating angular momentum integrals            ... done
Transforming integrals                            ... done

-----------------------------------------------------------------------------
         ABSORPTION SPECTRUM VIA TRANSITION ELECTRIC DIPOLE MOMENTS
-----------------------------------------------------------------------------
State   Energy    Wavelength  fosc         T2        TX        TY        TZ  
        (cm-1)      (nm)                 (au**2)    (au)      (au)      (au) 
-----------------------------------------------------------------------------
   1   20191.3    495.3   1.789928747  29.18421   5.40013  -0.14954  -0.02188
   2   21521.8    464.6   0.025058985   0.38332  -0.61815   0.03027  -0.01716
   3   27219.6    367.4   0.037444364   0.45288  -0.62516   0.18009   0.17212
   4   29151.9    343.0   0.006830232   0.07713  -0.27374   0.04409   0.01604
   5   30900.4    323.6   0.005634506   0.06003  -0.08131   0.19624   0.12209
   6   32037.9    312.1   0.000605442   0.00622   0.04244   0.06520  -0.01297
   7   32422.1    308.4   0.234281855   2.37888  -1.15491  -0.75789  -0.68606
   8   34309.3    291.5   0.035316457   0.33888   0.54384  -0.15866  -0.13393
   9   36353.9    275.1   0.033829195   0.30635   0.50972  -0.17158  -0.13075
  10   38444.8    260.1   0.000453533   0.00388  -0.00295  -0.03211   0.05333

-----------------------------------------------------------------------------
         ABSORPTION SPECTRUM VIA TRANSITION VELOCITY DIPOLE MOMENTS
-----------------------------------------------------------------------------
State   Energy    Wavelength   fosc        P2         PX        PY        PZ  
        (cm-1)      (nm)                 (au**2)     (au)      (au)      (au) 
-----------------------------------------------------------------------------
   1   20191.3    495.3   0.421043177   0.05810  -0.24004   0.01788   0.01287
   2   21521.8    464.6   0.006808953   0.00100   0.03144  -0.00295   0.00214
   3   27219.6    367.4   0.017553426   0.00327   0.04716  -0.02578  -0.01942
   4   29151.9    343.0   0.001211412   0.00024   0.01542   0.00190  -0.00009
   5   30900.4    323.6   0.019079710   0.00403  -0.01332   0.04869   0.03849
   6   32037.9    312.1   0.000475132   0.00010  -0.00228   0.00718  -0.00688
   7   32422.1    308.4   0.029794771   0.00660   0.07915  -0.01502  -0.01059
   8   34309.3    291.5   0.027073591   0.00635  -0.03903   0.05162   0.04648
   9   36353.9    275.1   0.021885184   0.00544  -0.07333   0.00531   0.00566
  10   38444.8    260.1   0.000730966   0.00019   0.00266  -0.00951   0.00972

-------------------------------------------------------------------
                             CD SPECTRUM
-------------------------------------------------------------------
State  Energy     Wavelength     R         MX        MY        MZ   
       (cm-1)       (nm)     (1e40*cgs)   (au)      (au)      (au)  
-------------------------------------------------------------------
   1   20191.3    495.3    100.08444   0.03138  -0.34445   0.39552
   2   21521.8    464.6    -77.04758   0.26883   0.09788   0.01235
   3   27219.6    367.4     -1.33084   0.00398   0.10644  -0.11329
   4   29151.9    343.0      0.19212   0.00286   0.04987  -0.06292
   5   30900.4    323.6     -2.61986  -0.00440  -0.10507   0.12045
   6   32037.9    312.1      6.71432   0.27088   0.04849   0.03214
   7   32422.1    308.4    -12.20467   0.01501  -0.04788   0.06536
   8   34309.3    291.5     -1.61617  -0.00986  -0.19882   0.22111
   9   36353.9    275.1      1.00241  -0.00129  -0.03262   0.02153
  10   38444.8    260.1     -0.32099   0.08884  -0.01670  -0.01792

-------------------------------------------------------------------
         CD SPECTRUM VIA TRANSITION VELOCITY DIPOLE MOMENTS        
-------------------------------------------------------------------
State  Energy     Wavelength     R         MX        MY        MZ   
       (cm-1)       (nm)     (1e40*cgs)   (au)      (au)      (au)  
-------------------------------------------------------------------
   1   20191.3    495.3    -44.06002   0.03138  -0.34445   0.39552
   2   21521.8    464.6     39.36677   0.26883   0.09788   0.01235
   3   27219.6    367.4     -1.35325   0.00398   0.10644  -0.11329
   4   29151.9    343.0      0.51233   0.00286   0.04987  -0.06292
   5   30900.4    323.6     -1.40945  -0.00440  -0.10507   0.12045
   6   32037.9    312.1     -1.58094   0.27088   0.04849   0.03214
   7   32422.1    308.4      3.87485   0.01501  -0.04788   0.06536
   8   34309.3    291.5      1.20564  -0.00986  -0.19882   0.22111
   9   36353.9    275.1      0.12210  -0.00129  -0.03262   0.02153
  10   38444.8    260.1      0.59592   0.08884  -0.01670  -0.01792

Total run time:      389.689 sec

           *** ORCA-CIS/TD-DFT FINISHED WITHOUT ERROR ***

Maximum memory used throughout the entire CIS-calculation: 1204.8 MB

-----------------------
CIS/TD-DFT TOTAL ENERGY
-----------------------

    E(SCF)  =  -1821.236741706 Eh
    DE(CIS) =      0.091998129 Eh (Root  1)
    ----------------------------- ---------
    E(tot)  =  -1821.144743578 Eh


-------------------------   --------------------
FINAL SINGLE POINT ENERGY     -1821.144743577897
-------------------------   --------------------


                            ***************************************
                            *     ORCA property calculations      *
                            ***************************************

                                    ---------------------
                                    Active property flags
                                    ---------------------
   (+) Dipole Moment


------------------------------------------------------------------------------
                       ORCA ELECTRIC PROPERTIES CALCULATION
------------------------------------------------------------------------------

Dipole Moment Calculation                       ... on
Quadrupole Moment Calculation                   ... off
Polarizability Calculation                      ... off
GBWName                                         ... b3lyp-train-15_job2.gbw
Electron density                                ... b3lyp-train-15_job2.scfp
The origin for moment calculation is the CENTER OF MASS  = ( 0.676306, -0.122395 -0.553030)

-------------
DIPOLE MOMENT
-------------
                                X             Y             Z
Electronic contribution:      8.67860      -1.73217      -1.44412
Nuclear contribution   :     -7.36122       2.58386       2.28092
                        -----------------------------------------
Total Dipole Moment    :      1.31738       0.85168       0.83680
                        -----------------------------------------
Magnitude (a.u.)       :      1.77795
Magnitude (Debye)      :      4.51919



--------------------
Rotational spectrum 
--------------------
 
Rotational constants in cm-1:     0.049889     0.003378     0.003166 
Rotational constants in MHz :  1495.642300   101.266670    94.927074 

 Dipole components along the rotational axes: 
x,y,z [a.u.] :     1.275739     1.235912     0.078188 
x,y,z [Debye]:     3.242671     3.141439     0.198738 

 

Timings for individual modules:

Sum of individual times         ...      624.881 sec (=  10.415 min)
GTO integral calculation        ...        7.169 sec (=   0.119 min)   1.1 %
SCF iterations                  ...      226.216 sec (=   3.770 min)  36.2 %
CIS module                      ...      391.496 sec (=   6.525 min)  62.7 %



                             ****ORCA TERMINATED NORMALLY****
TOTAL RUN TIME: 0 days 2 hours 13 minutes 11 seconds 547 msec
