
                                 *****************
                                 * O   R   C   A *
                                 *****************

                                            #,                                       
                                            ###                                      
                                            ####                                     
                                            #####                                    
                                            ######                                   
                                           ########,                                 
                                     ,,################,,,,,                         
                               ,,#################################,,                 
                          ,,##########################################,,             
                       ,#########################################, ''#####,          
                    ,#############################################,,   '####,        
                  ,##################################################,,,,####,       
                ,###########''''           ''''###############################       
              ,#####''   ,,,,##########,,,,          '''####'''          '####       
            ,##' ,,,,###########################,,,                        '##       
           ' ,,###''''                  '''############,,,                           
         ,,##''                                '''############,,,,        ,,,,,,###''
      ,#''                                            '''#######################'''  
     '                                                          ''''####''''         
             ,#######,   #######,   ,#######,      ##                                
            ,#'     '#,  ##    ##  ,#'     '#,    #''#        ######   ,####,        
            ##       ##  ##   ,#'  ##            #'  '#       #        #'  '#        
            ##       ##  #######   ##           ,######,      #####,   #    #        
            '#,     ,#'  ##    ##  '#,     ,#' ,#      #,         ##   #,  ,#        
             '#######'   ##     ##  '#######'  #'      '#     #####' # '####'        



                  #######################################################
                  #                        -***-                        #
                  #          Department of theory and spectroscopy      #
                  #    Directorship and core code : Frank Neese         #
                  #        Max Planck Institute fuer Kohlenforschung    #
                  #                Kaiser Wilhelm Platz 1               #
                  #                 D-45470 Muelheim/Ruhr               #
                  #                      Germany                        #
                  #                                                     #
                  #                  All rights reserved                #
                  #                        -***-                        #
                  #######################################################


                         Program Version 5.0.2 -  RELEASE  -


 With contributions from (in alphabetic order):
   Daniel Aravena         : Magnetic Suceptibility
   Michael Atanasov       : Ab Initio Ligand Field Theory (pilot matlab implementation)
   Alexander A. Auer      : GIAO ZORA, VPT2 properties, NMR spectrum
   Ute Becker             : Parallelization
   Giovanni Bistoni       : ED, misc. LED, open-shell LED, HFLD
   Martin Brehm           : Molecular dynamics
   Dmytro Bykov           : SCF Hessian
   Vijay G. Chilkuri      : MRCI spin determinant printing, contributions to CSF-ICE
   Dipayan Datta          : RHF DLPNO-CCSD density
   Achintya Kumar Dutta   : EOM-CC, STEOM-CC
   Dmitry Ganyushin       : Spin-Orbit,Spin-Spin,Magnetic field MRCI
   Miquel Garcia          : C-PCM and meta-GGA Hessian, CC/C-PCM, Gaussian charge scheme
   Yang Guo               : DLPNO-NEVPT2, F12-NEVPT2, CIM, IAO-localization
   Andreas Hansen         : Spin unrestricted coupled pair/coupled cluster methods
   Benjamin Helmich-Paris : MC-RPA, TRAH-SCF, COSX integrals
   Lee Huntington         : MR-EOM, pCC
   Robert Izsak           : Overlap fitted RIJCOSX, COSX-SCS-MP3, EOM
   Marcus Kettner         : VPT2
   Christian Kollmar      : KDIIS, OOCD, Brueckner-CCSD(T), CCSD density, CASPT2, CASPT2-K
   Simone Kossmann        : Meta GGA functionals, TD-DFT gradient, OOMP2, MP2 Hessian
   Martin Krupicka        : Initial AUTO-CI
   Lucas Lang             : DCDCAS
   Marvin Lechner         : AUTO-CI (C++ implementation), FIC-MRCC
   Dagmar Lenk            : GEPOL surface, SMD
   Dimitrios Liakos       : Extrapolation schemes; Compound Job, initial MDCI parallelization
   Dimitrios Manganas     : Further ROCIS development; embedding schemes
   Dimitrios Pantazis     : SARC Basis sets
   Anastasios Papadopoulos: AUTO-CI, single reference methods and gradients
   Taras Petrenko         : DFT Hessian,TD-DFT gradient, ASA, ECA, R-Raman, ABS, FL, XAS/XES, NRVS
   Peter Pinski           : DLPNO-MP2, DLPNO-MP2 Gradient
   Christoph Reimann      : Effective Core Potentials
   Marius Retegan         : Local ZFS, SOC
   Christoph Riplinger    : Optimizer, TS searches, QM/MM, DLPNO-CCSD(T), (RO)-DLPNO pert. Triples
   Tobias Risthaus        : Range-separated hybrids, TD-DFT gradient, RPA, STAB
   Michael Roemelt        : Original ROCIS implementation
   Masaaki Saitow         : Open-shell DLPNO-CCSD energy and density
   Barbara Sandhoefer     : DKH picture change effects
   Avijit Sen             : IP-ROCIS
   Kantharuban Sivalingam : CASSCF convergence, NEVPT2, FIC-MRCI
   Bernardo de Souza      : ESD, SOC TD-DFT
   Georgi Stoychev        : AutoAux, RI-MP2 NMR, DLPNO-MP2 response
   Willem Van den Heuvel  : Paramagnetic NMR
   Boris Wezisla          : Elementary symmetry handling
   Frank Wennmohs         : Technical directorship


 We gratefully acknowledge several colleagues who have allowed us to
 interface, adapt or use parts of their codes:
   Stefan Grimme, W. Hujo, H. Kruse, P. Pracht,  : VdW corrections, initial TS optimization,
                  C. Bannwarth, S. Ehlert          DFT functionals, gCP, sTDA/sTD-DF
   Ed Valeev, F. Pavosevic, A. Kumar             : LibInt (2-el integral package), F12 methods
   Garnet Chan, S. Sharma, J. Yang, R. Olivares  : DMRG
   Ulf Ekstrom                                   : XCFun DFT Library
   Mihaly Kallay                                 : mrcc  (arbitrary order and MRCC methods)
   Jiri Pittner, Ondrej Demel                    : Mk-CCSD
   Frank Weinhold                                : gennbo (NPA and NBO analysis)
   Christopher J. Cramer and Donald G. Truhlar   : smd solvation model
   Lars Goerigk                                  : TD-DFT with DH, B97 family of functionals
   V. Asgeirsson, H. Jonsson                     : NEB implementation
   FAccTs GmbH                                   : IRC, NEB, NEB-TS, DLPNO-Multilevel, CI-OPT
                                                   MM, QMMM, 2- and 3-layer-ONIOM, Crystal-QMMM,
                                                   LR-CPCM, SF, NACMEs, symmetry and pop. for TD-DFT,
                                                   nearIR, NL-DFT gradient (VV10), updates on ESD,
                                                   ML-optimized integration grids
   S Lehtola, MJT Oliveira, MAL Marques          : LibXC Library
   Liviu Ungur et al                             : ANISO software


 Your calculation uses the libint2 library for the computation of 2-el integrals
 For citations please refer to: http://libint.valeyev.net

 Your ORCA version has been built with support for libXC version: 5.1.0
 For citations please refer to: https://tddft.org/programs/libxc/

 This ORCA versions uses:
   CBLAS   interface :  Fast vector & matrix operations
   LAPACKE interface :  Fast linear algebra routines
   SCALAPACK package :  Parallel linear algebra routines
   Shared memory     :  Shared parallel matrices
   BLAS/LAPACK       :  OpenBLAS 0.3.15  USE64BITINT DYNAMIC_ARCH NO_AFFINITY Haswell SINGLE_THREADED
        Core in use  :  Haswell
   Copyright (c) 2011-2014, The OpenBLAS Project


Your calculation utilizes the SMD solvation module
Please cite in your paper:
A.V. Marenich, C.J. Cramer, D.G. Truhlar J. Phys. Chem. B, 113, (2009), 6378 

XCFun DFT library Copyright 2009-2010 Ulf Ekstrom and contributors.
See http://admol.org/xcfun for more information.
This is free software; see the source code for copying conditions.
There is ABSOLUTELY NO WARRANTY; not even for MERCHANTABILITY or FITNESS FOR A PARTICULAR PURPOSE.
For details see the documentation.
Scientific users of this library should cite U. Ekstrom, L. Visscher, R. Bast, A. J. Thorvaldsen and K. Ruud;
J.Chem.Theor.Comp. 2010, DOI: 10.1021/ct100117s
XCFun Version 0.99 

================================================================================

----- Orbital basis set information -----
Your calculation utilizes the basis: aug-cc-pVTZ 
    H, B-Ne : Obtained from the ccRepo (grant-hill.group.shef.ac.uk/ccrepo) Feb. 2017
              R. A. Kendall, T. H. Dunning, Jr., R. J. Harrison, J. Chem. Phys. 96, 6796 (1992)
         He : Obtained from the ccRepo (grant-hill.group.shef.ac.uk/ccrepo) Feb. 2017
              D. E. Woon, T. H. Dunning, Jr., J. Chem. Phys. 100, 2975 (1994)
  Li-Be, Na : Obtained from the ccRepo (grant-hill.group.shef.ac.uk/ccrepo) Feb. 2017
              B. P. Prascher, D. E. Woon, K. A. Peterson, T. H. Dunning, Jr., A. K. Wilson, Theor. Chem. Acc. 128, 69 (2011)
         Mg : Obtained from the Peterson Research Group Website (tyr0.chem.wsu.edu/~kipeters) Feb. 2017
              B. P. Prascher, D. E. Woon, K. A. Peterson, T. H. Dunning, Jr., A. K. Wilson, Theor. Chem. Acc. 128, 69 (2011)
      Al-Ar : Obtained from the ccRepo (grant-hill.group.shef.ac.uk/ccrepo) Feb. 2017
              D. E. Woon, T. H. Dunning, Jr., J. Chem. Phys. 98, 1358 (1993)
      Sc-Zn : Obtained from the ccRepo (grant-hill.group.shef.ac.uk/ccrepo) Feb. 2017
              N. B. Balabanov, K. A. Peterson, J. Chem. Phys. 123, 064107 (2005)
              N. B. Balabanov, K. A. Peterson, J. Chem. Phys. 125, 074110 (2006)
      Ga-Kr : Obtained from the ccRepo (grant-hill.group.shef.ac.uk/ccrepo) Feb. 2017
              A. K. Wilson, D. E. Woon, K. A. Peterson, T. H. Dunning, Jr., J. Chem. Phys. 110, 7667 (1999)
     Ag, Au : Obtained from the Peterson Research Group Website (tyr0.chem.wsu.edu/~kipeters) Feb. 2017
              K. A. Peterson, C. Puzzarini, Theor. Chem. Acc. 114, 283 (2005)

The basis set includes element-specific modifications.

Your calculation utilizes the basis: cc-pVTZ 
       H, B-Ne : Obtained from the ccRepo (grant-hill.group.shef.ac.uk/ccrepo) Feb. 2017
                 T. H. Dunning, Jr., J. Chem. Phys. 90, 1007 (1989)
            He : Obtained from the ccRepo (grant-hill.group.shef.ac.uk/ccrepo) Feb. 2017
                 D. E. Woon, T. H. Dunning, Jr., J. Chem. Phys. 100, 2975 (1994)
  Li-Be, Na-Mg : Obtained from the ccRepo (grant-hill.group.shef.ac.uk/ccrepo) Feb. 2017
                 B. P. Prascher, D. E. Woon, K. A. Peterson, T. H. Dunning, Jr., A. K. Wilson, Theor. Chem. Acc. 128, 69 (2011)
         Al-Ar : Obtained from the ccRepo (grant-hill.group.shef.ac.uk/ccrepo) Feb. 2017
                 D. E. Woon, T. H. Dunning, Jr., J. Chem. Phys. 98, 1358 (1993)
            Ca : Obtained from the Peterson Research Group Website (tyr0.chem.wsu.edu/~kipeters) Feb. 2017
                 J. Koput, K. A. Peterson, J. Phys. Chem. 106, 9595 (2002)
         Sc-Zn : Obtained from the ccRepo (grant-hill.group.shef.ac.uk/ccrepo) Feb. 2017
                 N. B. Balabanov, K. A. Peterson, J. Chem. Phys. 123, 064107 (2005)
                 N. B. Balabanov, K. A. Peterson, J. Chem. Phys. 125, 074110 (2006)
         Ga-Kr : Obtained from the ccRepo (grant-hill.group.shef.ac.uk/ccrepo) Feb. 2017
                 A. K. Wilson, D. E. Woon, K. A. Peterson, T. H. Dunning, Jr., J. Chem. Phys. 110, 7667 (1999)
             Y : Obtained from the ccRepo (grant-hill.group.shef.ac.uk/ccrepo) Feb. 2017
                 K. A. Peterson, D. Figgen, M. Dolg, H. Stoll, J. Chem. Phys. 126, 124101 (2007)
        Ag, Au : Obtained from the Peterson Research Group Website (tyr0.chem.wsu.edu/~kipeters) Feb. 2017
                 K. A. Peterson, C. Puzzarini, Theor. Chem. Acc. 114, 283 (2005)

----- AuxJ basis set information -----
Your calculation utilizes the auxiliary basis: aug-cc-pVTZ/JK 
  H, B-F, Al-Cl, Ga-Br : Obtained from the TURBOMOLE 7.0 basis set library

The basis set includes element-specific modifications.

Your calculation utilizes the auxiliary basis: cc-pVTZ/JK 
  H, B-F, Al-Cl, Ga-Br : Obtained from the TURBOMOLE 7.0 basis set library

----- AuxC basis set information -----
Your calculation utilizes the auxiliary basis: aug-cc-pVTZ/C 
  H-He, B-F, Al-Ar, Ga-Kr : Obtained from the EMSL Basis Set Exchange (bse.pnl.gov) Feb. 2017
                            F. Weigend, A. Kohn, C. Hattig, J. Chem. Phys. 116, 3175 (2002)
                   Be, Mg : Obtained from the TURBOMOLE 7.0 basis set library
                            C. Haettig, Phys. Chem. Chem. Phys. 7, 59 (2005)
                       Ne : Obtained from the EMSL Basis Set Exchange (bse.pnl.gov) Feb. 2017
                            C. Haettig, Phys. Chem. Chem. Phys. 7, 59 (2005)
                            F. Weigend, A. Kohn, C. Hattig, J. Chem. Phys. 116, 3175 (2002)
                    Sc-Zn : Obtained from the EMSL Basis Set Exchange (bse.pnl.gov) Feb. 2017
                            J. G. Hill, J. A. Platts, J. Chem. Phys. 128, 044104 (2008)

The basis set includes element-specific modifications.

Your calculation utilizes the auxiliary basis: cc-pVTZ/C 
  Obtained from the EMSL Basis Set Exchange (bse.pnl.gov) Feb. 2017
  H-He, B-F, Al-Ar, Ga-Kr : F. Weigend, A. Kohn, C. Hattig, J. Chem. Phys. 116, 3175 (2002)
             Li-Be, Na-Mg : C. Haettig, Phys. Chem. Chem. Phys. 7, 59 (2005)
                       Ne : C. Haettig, Phys. Chem. Chem. Phys. 7, 59 (2005)
                            F. Weigend, A. Kohn, C. Hattig, J. Chem. Phys. 116, 3175 (2002)
                    Sc-Zn : J. G. Hill, J. A. Platts, J. Chem. Phys. 128, 044104 (2008)

================================================================================
                                        WARNINGS
                       Please study these warnings very carefully!
================================================================================


WARNING: Geometry Optimization
  ===> : Switching off AutoStart
         For restart on a previous wavefunction, please use MOREAD

INFO   : the flag for use of the SHARK integral package has been found!



***************************************
The coordinates will be read from file: 
***************************************


Your calculation utilizes the SMD solvation module
Please cite in your paper:
A.V. Marenich, C.J. Cramer, D.G. Truhlar J. Phys. Chem. B, 113, (2009), 6378 

XCFun DFT library Copyright 2009-2010 Ulf Ekstrom and contributors.
See http://admol.org/xcfun for more information.
This is free software; see the source code for copying conditions.
There is ABSOLUTELY NO WARRANTY; not even for MERCHANTABILITY or FITNESS FOR A PARTICULAR PURPOSE.
For details see the documentation.
Scientific users of this library should cite U. Ekstrom, L. Visscher, R. Bast, A. J. Thorvaldsen and K. Ruud;
J.Chem.Theor.Comp. 2010, DOI: 10.1021/ct100117s
XCFun Version 0.99 

================================================================================

----- Orbital basis set information -----
Your calculation utilizes the basis: aug-cc-pVTZ 
    H, B-Ne : Obtained from the ccRepo (grant-hill.group.shef.ac.uk/ccrepo) Feb. 2017
              R. A. Kendall, T. H. Dunning, Jr., R. J. Harrison, J. Chem. Phys. 96, 6796 (1992)
         He : Obtained from the ccRepo (grant-hill.group.shef.ac.uk/ccrepo) Feb. 2017
              D. E. Woon, T. H. Dunning, Jr., J. Chem. Phys. 100, 2975 (1994)
  Li-Be, Na : Obtained from the ccRepo (grant-hill.group.shef.ac.uk/ccrepo) Feb. 2017
              B. P. Prascher, D. E. Woon, K. A. Peterson, T. H. Dunning, Jr., A. K. Wilson, Theor. Chem. Acc. 128, 69 (2011)
         Mg : Obtained from the Peterson Research Group Website (tyr0.chem.wsu.edu/~kipeters) Feb. 2017
              B. P. Prascher, D. E. Woon, K. A. Peterson, T. H. Dunning, Jr., A. K. Wilson, Theor. Chem. Acc. 128, 69 (2011)
      Al-Ar : Obtained from the ccRepo (grant-hill.group.shef.ac.uk/ccrepo) Feb. 2017
              D. E. Woon, T. H. Dunning, Jr., J. Chem. Phys. 98, 1358 (1993)
      Sc-Zn : Obtained from the ccRepo (grant-hill.group.shef.ac.uk/ccrepo) Feb. 2017
              N. B. Balabanov, K. A. Peterson, J. Chem. Phys. 123, 064107 (2005)
              N. B. Balabanov, K. A. Peterson, J. Chem. Phys. 125, 074110 (2006)
      Ga-Kr : Obtained from the ccRepo (grant-hill.group.shef.ac.uk/ccrepo) Feb. 2017
              A. K. Wilson, D. E. Woon, K. A. Peterson, T. H. Dunning, Jr., J. Chem. Phys. 110, 7667 (1999)
     Ag, Au : Obtained from the Peterson Research Group Website (tyr0.chem.wsu.edu/~kipeters) Feb. 2017
              K. A. Peterson, C. Puzzarini, Theor. Chem. Acc. 114, 283 (2005)

The basis set includes element-specific modifications.

Your calculation utilizes the basis: cc-pVTZ 
       H, B-Ne : Obtained from the ccRepo (grant-hill.group.shef.ac.uk/ccrepo) Feb. 2017
                 T. H. Dunning, Jr., J. Chem. Phys. 90, 1007 (1989)
            He : Obtained from the ccRepo (grant-hill.group.shef.ac.uk/ccrepo) Feb. 2017
                 D. E. Woon, T. H. Dunning, Jr., J. Chem. Phys. 100, 2975 (1994)
  Li-Be, Na-Mg : Obtained from the ccRepo (grant-hill.group.shef.ac.uk/ccrepo) Feb. 2017
                 B. P. Prascher, D. E. Woon, K. A. Peterson, T. H. Dunning, Jr., A. K. Wilson, Theor. Chem. Acc. 128, 69 (2011)
         Al-Ar : Obtained from the ccRepo (grant-hill.group.shef.ac.uk/ccrepo) Feb. 2017
                 D. E. Woon, T. H. Dunning, Jr., J. Chem. Phys. 98, 1358 (1993)
            Ca : Obtained from the Peterson Research Group Website (tyr0.chem.wsu.edu/~kipeters) Feb. 2017
                 J. Koput, K. A. Peterson, J. Phys. Chem. 106, 9595 (2002)
         Sc-Zn : Obtained from the ccRepo (grant-hill.group.shef.ac.uk/ccrepo) Feb. 2017
                 N. B. Balabanov, K. A. Peterson, J. Chem. Phys. 123, 064107 (2005)
                 N. B. Balabanov, K. A. Peterson, J. Chem. Phys. 125, 074110 (2006)
         Ga-Kr : Obtained from the ccRepo (grant-hill.group.shef.ac.uk/ccrepo) Feb. 2017
                 A. K. Wilson, D. E. Woon, K. A. Peterson, T. H. Dunning, Jr., J. Chem. Phys. 110, 7667 (1999)
             Y : Obtained from the ccRepo (grant-hill.group.shef.ac.uk/ccrepo) Feb. 2017
                 K. A. Peterson, D. Figgen, M. Dolg, H. Stoll, J. Chem. Phys. 126, 124101 (2007)
        Ag, Au : Obtained from the Peterson Research Group Website (tyr0.chem.wsu.edu/~kipeters) Feb. 2017
                 K. A. Peterson, C. Puzzarini, Theor. Chem. Acc. 114, 283 (2005)

----- AuxJ basis set information -----
Your calculation utilizes the auxiliary basis: aug-cc-pVTZ/JK 
  H, B-F, Al-Cl, Ga-Br : Obtained from the TURBOMOLE 7.0 basis set library

The basis set includes element-specific modifications.

Your calculation utilizes the auxiliary basis: cc-pVTZ/JK 
  H, B-F, Al-Cl, Ga-Br : Obtained from the TURBOMOLE 7.0 basis set library

----- AuxC basis set information -----
Your calculation utilizes the auxiliary basis: aug-cc-pVTZ/C 
  H-He, B-F, Al-Ar, Ga-Kr : Obtained from the EMSL Basis Set Exchange (bse.pnl.gov) Feb. 2017
                            F. Weigend, A. Kohn, C. Hattig, J. Chem. Phys. 116, 3175 (2002)
                   Be, Mg : Obtained from the TURBOMOLE 7.0 basis set library
                            C. Haettig, Phys. Chem. Chem. Phys. 7, 59 (2005)
                       Ne : Obtained from the EMSL Basis Set Exchange (bse.pnl.gov) Feb. 2017
                            C. Haettig, Phys. Chem. Chem. Phys. 7, 59 (2005)
                            F. Weigend, A. Kohn, C. Hattig, J. Chem. Phys. 116, 3175 (2002)
                    Sc-Zn : Obtained from the EMSL Basis Set Exchange (bse.pnl.gov) Feb. 2017
                            J. G. Hill, J. A. Platts, J. Chem. Phys. 128, 044104 (2008)

The basis set includes element-specific modifications.

Your calculation utilizes the auxiliary basis: cc-pVTZ/C 
  Obtained from the EMSL Basis Set Exchange (bse.pnl.gov) Feb. 2017
  H-He, B-F, Al-Ar, Ga-Kr : F. Weigend, A. Kohn, C. Hattig, J. Chem. Phys. 116, 3175 (2002)
             Li-Be, Na-Mg : C. Haettig, Phys. Chem. Chem. Phys. 7, 59 (2005)
                       Ne : C. Haettig, Phys. Chem. Chem. Phys. 7, 59 (2005)
                            F. Weigend, A. Kohn, C. Hattig, J. Chem. Phys. 116, 3175 (2002)
                    Sc-Zn : J. G. Hill, J. A. Platts, J. Chem. Phys. 128, 044104 (2008)

================================================================================
                                        WARNINGS
                       Please study these warnings very carefully!
================================================================================

INFO   : Checking CIS options ...

INFO   : the flag for use of the SHARK integral package has been found!

================================================================================
                                       INPUT FILE
================================================================================
NAME = m062x-train-15.inp
|  1> ! m062x defgrid3 aug-cc-PVTZ RIJCOSX Opt
|  2> %maxcore 4000
|  3> %basis
|  4>  AuxJ "aug-cc-PVTZ/JK"
|  5>  AuxC "aug-cc-PVTZ/C"
|  6>  newGTO H "cc-PVTZ" end
|  7>  newAuxJGTO H "cc-PVTZ/JK" end
|  8>  newAuxCGTO H "cc-PVTZ/C" end
|  9> end
| 10> %cpcm
| 11>  SMD true
| 12>  SMDsolvent "dimethylsulfoxide"
| 13> end
| 14> %pal nprocs 4 end
| 15> * xyz 0 1
| 16> C         -6.40460        1.20310        0.64210
| 17> C         -5.24970        0.46740        0.07220
| 18> C         -5.28390       -0.60600       -0.78920
| 19> N         -4.10750       -1.10170       -1.17240
| 20> C         -3.10180       -0.47260       -0.65330
| 21> N         -1.84160       -0.77160       -0.88030
| 22> N         -0.94070       -0.06400       -0.28470
| 23> C          0.33600       -0.36430       -0.52760
| 24> C          0.92970       -1.31870       -1.34880
| 25> C          2.31270       -1.28290       -1.30880
| 26> C          2.81780       -0.30790       -0.46080
| 27> C          4.18450       -0.01940       -0.19830
| 28> C          4.70860        0.93560        0.64110
| 29> C          6.11230        0.94260        0.65870
| 30> C          6.65350        0.00020       -0.16130
| 31> S          5.45820       -0.92080       -0.97660
| 32> S          1.54470        0.58790        0.30300
| 33> S         -3.62590        0.89480        0.43750
| 34> H         -7.33680        0.75810        0.30210
| 35> H         -6.37820        2.24890        0.33630
| 36> H         -6.37380        1.17710        1.73100
| 37> H         -6.18500       -1.05910       -1.16430
| 38> H          0.33790       -1.99490       -1.93880
| 39> H          2.95460       -1.93830       -1.87160
| 40> H          4.09050        1.60000        1.21750
| 41> H          6.69910        1.61820        1.25460
| 42> H          7.68910       -0.21160       -0.33850
| 43> *
| 44> 
| 45> 
| 46> $new_job
| 47> ! m062x defgrid3 aug-cc-PVTZ RIJCOSX SP
| 48> %maxcore 4000
| 49> %basis
| 50>  AuxJ "aug-cc-PVTZ/JK"
| 51>  AuxC "aug-cc-PVTZ/C"
| 52>  newGTO H "cc-PVTZ" end
| 53>  newAuxJGTO H "cc-PVTZ/JK" end
| 54>  newAuxCGTO H "cc-PVTZ/C" end
| 55> end
| 56> %cpcm
| 57>  SMD true
| 58>  SMDsolvent "dimethylsulfoxide"
| 59> end
| 60> %pal nprocs 4 end
| 61> %tddft
| 62>  nroots 10
| 63>  maxdim 7
| 64> end
| 65> * xyzfile 0 1
| 66> 
| 67>                          ****END OF INPUT****
================================================================================


                 $$$$$$$$$$$$$$$$$$$$$$$$$$$$$$$$$$$$$$$$$$$$$$ 
                 $ THERE ARE  2 JOBS TO BE PROCESSED THIS RUN $
                 $$$$$$$$$$$$$$$$$$$$$$$$$$$$$$$$$$$$$$$$$$$$$$ 




                 $$$$$$$$$$$$$$$$  JOB NUMBER  1 $$$$$$$$$$$$$$


                       *****************************
                       * Geometry Optimization Run *
                       *****************************

Geometry optimization settings:
Update method            Update   .... BFGS
Choice of coordinates    CoordSys .... Z-matrix Internals
Initial Hessian          InHess   .... Almoef's Model

Convergence Tolerances:
Energy Change            TolE     ....  5.0000e-06 Eh
Max. Gradient            TolMAXG  ....  3.0000e-04 Eh/bohr
RMS Gradient             TolRMSG  ....  1.0000e-04 Eh/bohr
Max. Displacement        TolMAXD  ....  4.0000e-03 bohr
RMS Displacement         TolRMSD  ....  2.0000e-03 bohr
Strict Convergence                ....  False
------------------------------------------------------------------------------
                        ORCA OPTIMIZATION COORDINATE SETUP
------------------------------------------------------------------------------

The optimization will be done in new redundant internal coordinates
Making redundant internal coordinates   ...  (new redundants) done
Evaluating the initial hessian          ...  (Almloef) done
Evaluating the coordinates              ...  done
Calculating the B-matrix                .... done
Calculating the G-matrix                .... done
Diagonalizing the G-matrix              .... done
Small eigenvalue found = 1.880e-03
Small eigenvalue found = 9.429e-03
Small eigenvalue found = 1.737e-02
Small eigenvalue found = 1.920e-02
Small eigenvalue found = 2.312e-02
The first mode is                       ....   58
The number of degrees of freedom        ....   75

    -----------------------------------------------------------------
                    Redundant Internal Coordinates


    -----------------------------------------------------------------
         Definition                    Initial Value    Approx d2E/dq
    -----------------------------------------------------------------
      1. B(C   1,C   0)                  1.4832         0.443680   
      2. B(C   2,C   1)                  1.3767         0.656025   
      3. B(N   3,C   2)                  1.3328         0.690338   
      4. B(C   4,N   3)                  1.2949         0.793714   
      5. B(N   5,C   4)                  1.3149         0.737308   
      6. B(N   6,N   5)                  1.2911         0.720655   
      7. B(C   7,N   6)                  1.3338         0.687807   
      8. B(C   8,C   7)                  1.3920         0.620170   
      9. B(C   9,C   8)                  1.3840         0.638624   
     10. B(C  10,C   9)                  1.3874         0.630813   
     11. B(C  11,C  10)                  1.4213         0.556993   
     12. B(C  12,C  11)                  1.3752         0.659598   
     13. B(C  13,C  12)                  1.4038         0.593851   
     14. B(C  14,C  13)                  1.3614         0.694009   
     15. B(S  15,C  11)                  1.7437         0.459364   
     16. B(S  15,C  14)                  1.7151         0.510235   
     17. B(S  16,C  10)                  1.7340         0.476139   
     18. B(S  16,C   7)                  1.7486         0.451245   
     19. B(S  17,C   4)                  1.8260         0.339533   
     20. B(S  17,C   1)                  1.7184         0.504187   
     21. B(H  18,C   0)                  1.0875         0.363444   
     22. B(H  19,C   0)                  1.0899         0.360216   
     23. B(H  20,C   0)                  1.0896         0.360569   
     24. B(H  21,C   2)                  1.0761         0.378972   
     25. B(H  22,C   8)                  1.0750         0.380533   
     26. B(H  23,C   9)                  1.0763         0.378747   
     27. B(H  24,C  12)                  1.0750         0.380443   
     28. B(H  25,C  13)                  1.0751         0.380343   
     29. B(H  26,C  14)                  1.0718         0.385018   
     30. A(H  18,C   0,H  20)          109.0807         0.291322   
     31. A(C   1,C   0,H  20)          110.4954         0.333732   
     32. A(C   1,C   0,H  18)          110.1432         0.334172   
     33. A(H  19,C   0,H  20)          107.6133         0.290914   
     34. A(C   1,C   0,H  19)          110.4435         0.333677   
     35. A(H  18,C   0,H  19)          109.0069         0.291277   
     36. A(C   2,C   1,S  17)          110.5123         0.445940   
     37. A(C   0,C   1,S  17)          122.0560         0.415702   
     38. A(C   0,C   1,C   2)          127.4316         0.413013   
     39. A(N   3,C   2,H  21)          118.8342         0.360300   
     40. A(C   1,C   2,H  21)          124.5546         0.359413   
     41. A(C   1,C   2,N   3)          116.6112         0.444164   
     42. A(C   2,N   3,C   4)          112.9278         0.456763   
     43. A(N   5,C   4,S  17)          123.2627         0.421372   
     44. A(N   3,C   4,S  17)          112.3572         0.426964   
     45. A(N   3,C   4,N   5)          124.3799         0.462283   
     46. A(C   4,N   5,N   6)          117.6752         0.451148   
     47. A(N   5,N   6,C   7)          117.4174         0.445496   
     48. A(N   6,C   7,C   8)          132.0685         0.439383   
     49. A(C   8,C   7,S  16)          111.0245         0.432689   
     50. A(N   6,C   7,S  16)          116.9060         0.437941   
     51. A(C   9,C   8,H  22)          125.6084         0.358022   
     52. A(C   7,C   8,H  22)          121.3501         0.356243   
     53. A(C   7,C   8,C   9)          113.0414         0.436407   
     54. A(C  10,C   9,H  23)          122.0351         0.356989   
     55. A(C   8,C   9,H  23)          124.4096         0.357736   
     56. A(C   8,C   9,C  10)          113.5552         0.437747   
     57. A(C   9,C  10,C  11)          127.2739         0.427117   
     58. A(C  11,C  10,S  16)          121.3188         0.428534   
     59. A(C   9,C  10,S  16)          111.4073         0.438234   
     60. A(C  12,C  11,S  15)          110.6731         0.438927   
     61. A(C  10,C  11,S  15)          120.9996         0.425789   
     62. A(C  10,C  11,C  12)          128.3273         0.430550   
     63. A(C  11,C  12,C  13)          113.0900         0.435539   
     64. A(C  11,C  12,H  24)          122.5009         0.359983   
     65. A(C  13,C  12,H  24)          124.4092         0.353619   
     66. A(C  12,C  13,C  14)          112.7364         0.439551   
     67. A(C  14,C  13,H  25)          123.4953         0.363104   
     68. A(C  12,C  13,H  25)          123.7683         0.353603   
     69. A(S  15,C  14,H  26)          119.2536         0.363375   
     70. A(C  13,C  14,H  26)          128.3516         0.363863   
     71. A(C  13,C  14,S  15)          112.3948         0.451493   
     72. A(C  11,S  15,C  14)           91.1058         0.442350   
     73. A(C   7,S  16,C  10)           90.9714         0.435460   
     74. A(C   1,S  17,C   4)           87.5915         0.418094   
     75. D(C   2,C   1,C   0,H  20)    122.0347         0.014522   
     76. D(S  17,C   1,C   0,H  18)   -178.7265         0.014522   
     77. D(S  17,C   1,C   0,H  19)     60.8127         0.014522   
     78. D(C   2,C   1,C   0,H  18)      1.4483         0.014522   
     79. D(S  17,C   1,C   0,H  20)    -58.1401         0.014522   
     80. D(C   2,C   1,C   0,H  19)   -119.0125         0.014522   
     81. D(N   3,C   2,C   1,S  17)     -0.0721         0.030005   
     82. D(H  21,C   2,C   1,S  17)    179.9598         0.030005   
     83. D(H  21,C   2,C   1,C   0)     -0.1984         0.030005   
     84. D(N   3,C   2,C   1,C   0)    179.7697         0.030005   
     85. D(C   4,N   3,C   2,H  21)   -179.9482         0.035595   
     86. D(C   4,N   3,C   2,C   1)      0.0817         0.035595   
     87. D(S  17,C   4,N   3,C   2)     -0.0518         0.048463   
     88. D(N   5,C   4,N   3,C   2)   -179.8732         0.048463   
     89. D(N   6,N   5,C   4,N   3)   -179.4409         0.041138   
     90. D(N   6,N   5,C   4,S  17)      0.7566         0.041138   
     91. D(C   7,N   6,N   5,C   4)   -179.4365         0.040845   
     92. D(S  16,C   7,N   6,N   5)   -179.1778         0.035310   
     93. D(C   8,C   7,N   6,N   5)      1.2188         0.035310   
     94. D(H  22,C   8,C   7,S  16)   -179.9138         0.026615   
     95. D(H  22,C   8,C   7,N   6)     -0.2927         0.026615   
     96. D(C   9,C   8,C   7,S  16)      0.0131         0.026615   
     97. D(C   9,C   8,C   7,N   6)    179.6342         0.026615   
     98. D(H  23,C   9,C   8,H  22)     -0.0571         0.028328   
     99. D(H  23,C   9,C   8,C   7)   -179.9803         0.028328   
    100. D(C  10,C   9,C   8,H  22)    179.9846         0.028328   
    101. D(C  10,C   9,C   8,C   7)      0.0614         0.028328   
    102. D(S  16,C  10,C   9,H  23)    179.9324         0.027595   
    103. D(S  16,C  10,C   9,C   8)     -0.1082         0.027595   
    104. D(C  11,C  10,C   9,H  23)     -0.1000         0.027595   
    105. D(C  11,C  10,C   9,C   8)    179.8594         0.027595   
    106. D(S  15,C  11,C  10,S  16)   -179.7202         0.021243   
    107. D(S  15,C  11,C  10,C   9)      0.3152         0.021243   
    108. D(C  12,C  11,C  10,S  16)      0.3067         0.021243   
    109. D(C  12,C  11,C  10,C   9)   -179.6579         0.021243   
    110. D(H  24,C  12,C  11,S  15)   -179.9906         0.030356   
    111. D(H  24,C  12,C  11,C  10)     -0.0152         0.030356   
    112. D(C  13,C  12,C  11,S  15)     -0.0125         0.030356   
    113. D(C  13,C  12,C  11,C  10)    179.9629         0.030356   
    114. D(H  25,C  13,C  12,H  24)     -0.0073         0.024285   
    115. D(H  25,C  13,C  12,C  11)   -179.9849         0.024285   
    116. D(C  14,C  13,C  12,H  24)    179.9890         0.024285   
    117. D(C  14,C  13,C  12,C  11)      0.0113         0.024285   
    118. D(H  26,C  14,C  13,H  25)     -0.0233         0.033874   
    119. D(H  26,C  14,C  13,C  12)    179.9804         0.033874   
    120. D(S  15,C  14,C  13,H  25)    179.9915         0.033874   
    121. D(S  15,C  14,C  13,C  12)     -0.0048         0.033874   
    122. D(C  11,S  15,C  14,H  26)   -179.9887         0.005367   
    123. D(C  11,S  15,C  14,C  13)     -0.0020         0.005367   
    124. D(C  14,S  15,C  11,C  12)      0.0082         0.004603   
    125. D(C  14,S  15,C  11,C  10)   -179.9692         0.004603   
    126. D(C   7,S  16,C  10,C  11)   -179.8737         0.004844   
    127. D(C   7,S  16,C  10,C   9)      0.0961         0.004844   
    128. D(C  10,S  16,C   7,C   8)     -0.0623         0.004489   
    129. D(C  10,S  16,C   7,N   6)   -179.7468         0.004489   
    130. D(C   1,S  17,C   4,N   5)    179.8338         0.003156   
    131. D(C   1,S  17,C   4,N   3)      0.0100         0.003156   
    132. D(C   4,S  17,C   1,C   2)      0.0326         0.005271   
    133. D(C   4,S  17,C   1,C   0)   -179.8192         0.005271   
    -----------------------------------------------------------------

Number of atoms                         .... 27
Number of degrees of freedom            .... 133

         *************************************************************
         *                GEOMETRY OPTIMIZATION CYCLE   1            *
         *************************************************************
---------------------------------
CARTESIAN COORDINATES (ANGSTROEM)
---------------------------------
  C     -6.404600    1.203100    0.642100
  C     -5.249700    0.467400    0.072200
  C     -5.283900   -0.606000   -0.789200
  N     -4.107500   -1.101700   -1.172400
  C     -3.101800   -0.472600   -0.653300
  N     -1.841600   -0.771600   -0.880300
  N     -0.940700   -0.064000   -0.284700
  C      0.336000   -0.364300   -0.527600
  C      0.929700   -1.318700   -1.348800
  C      2.312700   -1.282900   -1.308800
  C      2.817800   -0.307900   -0.460800
  C      4.184500   -0.019400   -0.198300
  C      4.708600    0.935600    0.641100
  C      6.112300    0.942600    0.658700
  C      6.653500    0.000200   -0.161300
  S      5.458200   -0.920800   -0.976600
  S      1.544700    0.587900    0.303000
  S     -3.625900    0.894800    0.437500
  H     -7.336800    0.758100    0.302100
  H     -6.378200    2.248900    0.336300
  H     -6.373800    1.177100    1.731000
  H     -6.185000   -1.059100   -1.164300
  H      0.337900   -1.994900   -1.938800
  H      2.954600   -1.938300   -1.871600
  H      4.090500    1.600000    1.217500
  H      6.699100    1.618200    1.254600
  H      7.689100   -0.211600   -0.338500

----------------------------
CARTESIAN COORDINATES (A.U.)
----------------------------
  NO LB      ZA    FRAG     MASS         X           Y           Z
   0 C     6.0000    0    12.011  -12.102940    2.273530    1.213393
   1 C     6.0000    0    12.011   -9.920495    0.883258    0.136438
   2 C     6.0000    0    12.011   -9.985124   -1.145174   -1.491372
   3 N     7.0000    0    14.007   -7.762050   -2.081911   -2.215515
   4 C     6.0000    0    12.011   -5.861553   -0.893085   -1.234558
   5 N     7.0000    0    14.007   -3.480120   -1.458113   -1.663526
   6 N     7.0000    0    14.007   -1.777665   -0.120942   -0.538005
   7 C     6.0000    0    12.011    0.634948   -0.688427   -0.997020
   8 C     6.0000    0    12.011    1.756878   -2.491982   -2.548863
   9 C     6.0000    0    12.011    4.370370   -2.424330   -2.473274
  10 C     6.0000    0    12.011    5.324870   -0.581847   -0.870786
  11 C     6.0000    0    12.011    7.907559   -0.036661   -0.374733
  12 C     6.0000    0    12.011    8.897964    1.768028    1.211503
  13 C     6.0000    0    12.011   11.550573    1.781256    1.244763
  14 C     6.0000    0    12.011   12.573293    0.000378   -0.304813
  15 S    16.0000    0    32.060   10.314503   -1.740060   -1.845507
  16 S    16.0000    0    32.060    2.919060    1.110970    0.572587
  17 S    16.0000    0    32.060   -6.851958    1.690927    0.826755
  18 H     1.0000    0     1.008  -13.864543    1.432601    0.570886
  19 H     1.0000    0     1.008  -12.053051    4.249805    0.635515
  20 H     1.0000    0     1.008  -12.044736    2.224397    3.271116
  21 H     1.0000    0     1.008  -11.687956   -2.001409   -2.200208
  22 H     1.0000    0     1.008    0.638538   -3.769815   -3.663801
  23 H     1.0000    0     1.008    5.583385   -3.662856   -3.536811
  24 H     1.0000    0     1.008    7.729925    3.023562    2.300742
  25 H     1.0000    0     1.008   12.659464    3.057955    2.370850
  26 H     1.0000    0     1.008   14.530293   -0.399866   -0.639672

--------------------------------
INTERNAL COORDINATES (ANGSTROEM)
--------------------------------
 C      0   0   0     0.000000000000     0.00000000     0.00000000
 C      1   0   0     1.483183909702     0.00000000     0.00000000
 C      2   1   0     1.376723341852   127.43156027     0.00000000
 N      3   2   1     1.332845711251   116.61117704   179.76970621
 C      4   3   2     1.294860652734   112.92782957     0.08171976
 N      5   4   3     1.314927389630   124.37988595   180.12675332
 N      6   5   4     1.291145975481   117.67518377   180.55911071
 C      7   6   5     1.333845339610   117.41740699   180.56349239
 C      8   7   6     1.392023164319   132.06849354     1.21877910
 C      9   8   7     1.384041415565   113.04142654   179.63420699
 C     10   9   8     1.387391440798   113.55524179     0.06135814
 C     11  10   9     1.421269640146   127.27388723   179.85940227
 C     12  11  10     1.375244767305   128.32732177   180.34206345
 C     13  12  11     1.403827785022   113.08996284   179.96288894
 C     14  13  12     1.361401924488   112.73640443     0.00000000
 S     15  14  13     1.715137656283   112.39479476     0.00000000
 S     11  10   9     1.733964154762   111.40729683   359.89184312
 S      2   1   3     1.718383336162   122.05595362   179.82520765
 H      1   2   3     1.087484179195   110.14324702     1.44825620
 H      1   2   3     1.089912033148   110.44347942   240.98748219
 H      1   2   3     1.089645745185   110.49542295   122.03466782
 H      3   2   1     1.076095177017   124.55463072   359.80158249
 H      9   8   7     1.074976129968   121.35009188   359.70727563
 H     10   9   8     1.076256758399   124.40963219   180.01967055
 H     13  12  11     1.075040431798   122.50085991     0.00000000
 H     14  13  12     1.075112277858   123.76832564   180.01509630
 H     15  14  13     1.071786564573   128.35162750   179.98044240

---------------------------
INTERNAL COORDINATES (A.U.)
---------------------------
 C      0   0   0     0.000000000000     0.00000000     0.00000000
 C      1   0   0     2.802811395576     0.00000000     0.00000000
 C      2   1   0     2.601630078277   127.43156027     0.00000000
 N      3   2   1     2.518713373036   116.61117704   179.76970621
 C      4   3   2     2.446932015259   112.92782957     0.08171976
 N      5   4   3     2.484852652393   124.37988595   180.12675332
 N      6   5   4     2.439912292573   117.67518377   180.55911071
 C      7   6   5     2.520602396871   117.41740699   180.56349239
 C      8   7   6     2.630542552637   132.06849354     1.21877910
 C      9   8   7     2.615459233423   113.04142654   179.63420699
 C     10   9   8     2.621789863655   113.55524179     0.06135814
 C     11  10   9     2.685810382332   127.27388723   179.85940227
 C     12  11  10     2.598835977315   128.32732177   180.34206345
 C     13  12  11     2.652850052881   113.08996284   179.96288894
 C     14  13  12     2.572676795476   112.73640443     0.00000000
 S     15  14  13     3.241140452350   112.39479476     0.00000000
 S     11  10   9     3.276717378537   111.40729683   359.89184312
 S      2   1   3     3.247273898441   122.05595362   179.82520765
 H      1   2   3     2.055047273651   110.14324702     1.44825620
 H      1   2   3     2.059635252714   110.44347942   240.98748219
 H      1   2   3     2.059132041392   110.49542295   122.03466782
 H      3   2   1     2.033525178596   124.55463072   359.80158249
 H      9   8   7     2.031410486141   121.35009188   359.70727563
 H     10   9   8     2.033830523156   124.40963219   180.01967055
 H     13  12  11     2.031531998990   122.50085991     0.00000000
 H     14  13  12     2.031667768367   123.76832564   180.01509630
 H     15  14  13     2.025383081060   128.35162750   179.98044240

---------------------
BASIS SET INFORMATION
---------------------
There are 4 groups of distinct atoms

 Group   1 Type C   : 19s6p3d2f contracted to 5s4p3d2f pattern {88111/3111/111/11}
 Group   2 Type N   : 19s6p3d2f contracted to 5s4p3d2f pattern {88111/3111/111/11}
 Group   3 Type S   : 42s17p3d2f contracted to 6s5p3d2f pattern {131313111/77111/111/11}
 Group   4 Type H   : 5s2p1d contracted to 3s2p1d pattern {311/11/1}

Atom   0C    basis set group =>   1
Atom   1C    basis set group =>   1
Atom   2C    basis set group =>   1
Atom   3N    basis set group =>   2
Atom   4C    basis set group =>   1
Atom   5N    basis set group =>   2
Atom   6N    basis set group =>   2
Atom   7C    basis set group =>   1
Atom   8C    basis set group =>   1
Atom   9C    basis set group =>   1
Atom  10C    basis set group =>   1
Atom  11C    basis set group =>   1
Atom  12C    basis set group =>   1
Atom  13C    basis set group =>   1
Atom  14C    basis set group =>   1
Atom  15S    basis set group =>   3
Atom  16S    basis set group =>   3
Atom  17S    basis set group =>   3
Atom  18H    basis set group =>   4
Atom  19H    basis set group =>   4
Atom  20H    basis set group =>   4
Atom  21H    basis set group =>   4
Atom  22H    basis set group =>   4
Atom  23H    basis set group =>   4
Atom  24H    basis set group =>   4
Atom  25H    basis set group =>   4
Atom  26H    basis set group =>   4
---------------------------------
AUXILIARY/J BASIS SET INFORMATION
---------------------------------
There are 4 groups of distinct atoms

 Group   1 Type C   : 10s7p5d2f1g contracted to 10s7p5d2f1g pattern {1111111111/1111111/11111/11/1}
 Group   2 Type N   : 10s7p5d2f1g contracted to 10s7p5d2f1g pattern {1111111111/1111111/11111/11/1}
 Group   3 Type S   : 13s11p9d3f1g contracted to 13s11p9d3f1g pattern {1111111111111/11111111111/111111111/111/1}
 Group   4 Type H   : 4s3p2d1f contracted to 4s3p2d1f pattern {1111/111/11/1}

Atom   0C    basis set group =>   1
Atom   1C    basis set group =>   1
Atom   2C    basis set group =>   1
Atom   3N    basis set group =>   2
Atom   4C    basis set group =>   1
Atom   5N    basis set group =>   2
Atom   6N    basis set group =>   2
Atom   7C    basis set group =>   1
Atom   8C    basis set group =>   1
Atom   9C    basis set group =>   1
Atom  10C    basis set group =>   1
Atom  11C    basis set group =>   1
Atom  12C    basis set group =>   1
Atom  13C    basis set group =>   1
Atom  14C    basis set group =>   1
Atom  15S    basis set group =>   3
Atom  16S    basis set group =>   3
Atom  17S    basis set group =>   3
Atom  18H    basis set group =>   4
Atom  19H    basis set group =>   4
Atom  20H    basis set group =>   4
Atom  21H    basis set group =>   4
Atom  22H    basis set group =>   4
Atom  23H    basis set group =>   4
Atom  24H    basis set group =>   4
Atom  25H    basis set group =>   4
Atom  26H    basis set group =>   4
---------------------------------
AUXILIARY/C BASIS SET INFORMATION
---------------------------------
There are 4 groups of distinct atoms

 Group   1 Type C   : 9s7p6d4f2g contracted to 9s7p6d4f2g pattern {111111111/1111111/111111/1111/11}
 Group   2 Type N   : 9s7p6d4f2g contracted to 9s7p6d4f2g pattern {111111111/1111111/111111/1111/11}
 Group   3 Type S   : 11s9p8d6f3g contracted to 11s9p8d6f3g pattern {11111111111/111111111/11111111/111111/111}
 Group   4 Type H   : 4s3p2d1f contracted to 4s3p2d1f pattern {1111/111/11/1}

Atom   0C    basis set group =>   1
Atom   1C    basis set group =>   1
Atom   2C    basis set group =>   1
Atom   3N    basis set group =>   2
Atom   4C    basis set group =>   1
Atom   5N    basis set group =>   2
Atom   6N    basis set group =>   2
Atom   7C    basis set group =>   1
Atom   8C    basis set group =>   1
Atom   9C    basis set group =>   1
Atom  10C    basis set group =>   1
Atom  11C    basis set group =>   1
Atom  12C    basis set group =>   1
Atom  13C    basis set group =>   1
Atom  14C    basis set group =>   1
Atom  15S    basis set group =>   3
Atom  16S    basis set group =>   3
Atom  17S    basis set group =>   3
Atom  18H    basis set group =>   4
Atom  19H    basis set group =>   4
Atom  20H    basis set group =>   4
Atom  21H    basis set group =>   4
Atom  22H    basis set group =>   4
Atom  23H    basis set group =>   4
Atom  24H    basis set group =>   4
Atom  25H    basis set group =>   4
Atom  26H    basis set group =>   4


           ************************************************************
           *        Program running with 4 parallel MPI-processes     *
           *              working on a common directory               *
           ************************************************************
------------------------------------------------------------------------------
                           ORCA GTO INTEGRAL CALCULATION
                           -- RI-GTO INTEGRALS CHOSEN --
------------------------------------------------------------------------------
------------------------------------------------------------------------------
                   ___                                                        
                  /   \      - P O W E R E D   B Y -                         
                 /     \                                                     
                 |  |  |   _    _      __       _____    __    __             
                 |  |  |  | |  | |    /  \     |  _  \  |  |  /  |          
                  \  \/   | |  | |   /    \    | | | |  |  | /  /          
                 / \  \   | |__| |  /  /\  \   | |_| |  |  |/  /          
                |  |  |   |  __  | /  /__\  \  |    /   |      \           
                |  |  |   | |  | | |   __   |  |    \   |  |\   \          
                \     /   | |  | | |  |  |  |  | |\  \  |  | \   \       
                 \___/    |_|  |_| |__|  |__|  |_| \__\ |__|  \__/        
                                                                              
                      - O R C A' S   B I G   F R I E N D -                    
                                      &                                       
                       - I N T E G R A L  F E E D E R -                       
                                                                              
 v1 FN, 2020, v2 2021                                                         
------------------------------------------------------------------------------


Reading SHARK input file m062x-train-15.SHARKINP.tmp ... ok
----------------------
SHARK INTEGRAL PACKAGE
----------------------

Number of atoms                             ...     27
Number of basis functions                   ...   1131
Number of shells                            ...    447
Maximum angular momentum                    ...      3
Integral batch strategy                     ... SHARK/LIBINT Hybrid
RI-J (if used) integral strategy            ... SPLIT-RIJ (Revised 2003 algorithm where possible)
Printlevel                                  ...      1
Contraction scheme used                     ... PARTIAL GENERAL contraction
Coulomb Range Separation                    ... NOT USED
Exchange Range Separation                   ... NOT USED
Finite Nucleus Model                        ... NOT USED
Auxiliary Coulomb fitting basis             ... AVAILABLE
   # of basis functions in Aux-J            ...   1818
   # of shells in Aux-J                     ...    576
   Maximum angular momentum in Aux-J        ...      4
Auxiliary J/K fitting basis                 ... NOT available
Auxiliary Correlation fitting basis         ... AVAILABLE
   # of basis functions in Aux-C            ...   2301
   # of shells in Aux-C                     ...    621
   Maximum angular momentum in Aux-C        ...      4
Auxiliary 'external' fitting basis          ... NOT available
Integral threshold                          ...     2.500000e-11
Primitive cut-off                           ...     2.500000e-12
Primitive pair pre-selection threshold      ...     2.500000e-12

Calculating pre-screening integrals         ... done (  0.2 sec) Dimension = 447
Calculating pre-screening integrals (ORCA)  ... done (  0.6 sec) Dimension = 312
Organizing shell pair data                  ... done (  1.0 sec)
Shell pair information
Total number of shell pairs                 ...    100128
Shell pairs after pre-screening             ...     56840
Total number of primitive shell pairs       ...    122832
Primitive shell pairs kept                  ...     64064
          la=0 lb=0:  12415 shell pairs
          la=1 lb=0:  15086 shell pairs
          la=1 lb=1:   4113 shell pairs
          la=2 lb=0:   9107 shell pairs
          la=2 lb=1:   4789 shell pairs
          la=2 lb=2:   1452 shell pairs
          la=3 lb=0:   5062 shell pairs
          la=3 lb=1:   2712 shell pairs
          la=3 lb=2:   1627 shell pairs
          la=3 lb=3:    477 shell pairs

Calculating one electron integrals          ... done (  0.2 sec)
Calculating RI/J V-Matrix + Cholesky decomp.... done (  0.9 sec)
Calculating RI/C V-Matrix + Cholesky decomp.... done (  0.4 sec)
Calculating Nuclear repulsion               ... done (  0.0 sec) ENN=   1485.586984744147 Eh

SHARK setup successfully completed in   5.8 seconds

Maximum memory used throughout the entire GTOINT-calculation: 92.0 MB


           ************************************************************
           *        Program running with 4 parallel MPI-processes     *
           *              working on a common directory               *
           ************************************************************
-------------------------------------------------------------------------------
                                 ORCA SCF
-------------------------------------------------------------------------------

------------
SCF SETTINGS
------------
Hamiltonian:
 Density Functional     Method          .... DFT(GTOs)
 Exchange Functional    Exchange        .... M062X
 Correlation Functional Correlation     .... M062X
 Gradients option       PostSCFGGA      .... off
 Hybrid DFT is turned on
   Fraction HF Exchange ScalHFX         ....  0.540000
   Scaling of DF-GGA-X  ScalDFX         ....  0.460000
   Scaling of DF-GGA-C  ScalDFC         ....  1.000000
   Scaling of DF-LDA-C  ScalLDAC        ....  1.000000
   Perturbative correction              ....  0.000000
   Density functional embedding theory  .... OFF
 RI-approximation to the Coulomb term is turned on
   Number of AuxJ basis functions       .... 1818
   RIJ-COSX (HFX calculated with COS-X)).... on


General Settings:
 Integral files         IntName         .... m062x-train-15
 Hartree-Fock type      HFTyp           .... RHF
 Total Charge           Charge          ....    0
 Multiplicity           Mult            ....    1
 Number of Electrons    NEL             ....  150
 Basis Dimension        Dim             ....  966
 Nuclear Repulsion      ENuc            ....   1485.5869847441 Eh

Convergence Acceleration:
 DIIS                   CNVDIIS         .... on
   Start iteration      DIISMaxIt       ....    12
   Startup error        DIISStart       ....  0.200000
   # of expansion vecs  DIISMaxEq       ....     5
   Bias factor          DIISBfac        ....   1.050
   Max. coefficient     DIISMaxC        ....  10.000
 Trust-Rad. Augm. Hess. CNVTRAH         .... auto
   Auto Start mean grad. ratio tolernc. ....  1.125000
   Auto Start start iteration           ....    20
   Auto Start num. interpolation iter.  ....    10
   Max. Number of Micro iterations      ....    16
   Max. Number of Macro iterations      .... Maxiter - #DIIS iter
   Number of Davidson start vectors     ....     2
   Converg. threshold I  (grad. norm)   ....   1.000e-05
   Converg. threshold II (energy diff.) ....   1.000e-08
   Grad. Scal. Fac. for Micro threshold ....   0.100
   Minimum threshold for Micro iter.    ....   0.010
   NR start threshold (gradient norm)   ....   0.001
   Initial trust radius                 ....   0.400
   Minimum AH scaling param. (alpha)    ....   1.000
   Maximum AH scaling param. (alpha)    .... 1000.000
   Orbital update algorithm             .... Taylor
   White noise on init. David. guess    .... on
   Maximum white noise                  ....   0.010
   Quad. conv. algorithm                .... NR
 SOSCF                  CNVSOSCF        .... on
   Start iteration      SOSCFMaxIt      ....   150
   Startup grad/error   SOSCFStart      ....  0.003300
 Level Shifting         CNVShift        .... on
   Level shift para.    LevelShift      ....    0.2500
   Turn off err/grad.   ShiftErr        ....    0.0010
 Zerner damping         CNVZerner       .... off
 Static damping         CNVDamp         .... on
   Fraction old density DampFac         ....    0.7000
   Max. Damping (<1)    DampMax         ....    0.9800
   Min. Damping (>=0)   DampMin         ....    0.0000
   Turn off err/grad.   DampErr         ....    0.1000
 Fernandez-Rico         CNVRico         .... off

SCF Procedure:
 Maximum # iterations   MaxIter         ....   125
 SCF integral mode      SCFMode         .... Direct
   Integral package                     .... SHARK and LIBINT hybrid scheme
 Reset frequency        DirectResetFreq ....    20
 Integral Threshold     Thresh          ....  2.500e-11 Eh
 Primitive CutOff       TCut            ....  2.500e-12 Eh

Convergence Tolerance:
 Convergence Check Mode ConvCheckMode   .... Total+1el-Energy
 Convergence forced     ConvForced      .... 0
 Energy Change          TolE            ....  1.000e-08 Eh
 1-El. energy change                    ....  1.000e-05 Eh
 Orbital Gradient       TolG            ....  1.000e-05
 Orbital Rotation angle TolX            ....  1.000e-05
 DIIS Error             TolErr          ....  5.000e-07


Diagonalization of the overlap matrix:
Smallest eigenvalue                        ... 1.484e-06
Time for diagonalization                   ...    0.276 sec
Threshold for overlap eigenvalues          ... 1.000e-08
Number of eigenvalues below threshold      ... 0
Time for construction of square roots      ...    0.134 sec
Total time needed                          ...    0.414 sec

Time for model grid setup =    0.528 sec

------------------------------
INITIAL GUESS: MODEL POTENTIAL
------------------------------
Loading Hartree-Fock densities                     ... done
Calculating cut-offs                               ... done
Initializing the effective Hamiltonian             ... done
Setting up the integral package (SHARK)            ... done
Starting the Coulomb interaction                   ... done (   1.9 sec)
Reading the grid                                   ... done
Mapping shells                                     ... done
Starting the XC term evaluation                    ... done (   1.2 sec)
  promolecular density results
     # of electrons  =    149.995041599
     EX              =   -158.427558112
     EC              =     -5.320251645
     EX+EC           =   -163.747809757
Transforming the Hamiltonian                       ... done (   0.1 sec)
Diagonalizing the Hamiltonian                      ... done (   0.3 sec)
Back transforming the eigenvectors                 ... done (   0.0 sec)
Now organizing SCF variables                       ... done
                      ------------------
                      INITIAL GUESS DONE (   4.1 sec)
                      ------------------
-------------------
DFT GRID GENERATION
-------------------

General Integration Accuracy     IntAcc      ... 4.959
Radial Grid Type                 RadialGrid  ... OptM3 with GC (2021)
Angular Grid (max. ang.)         AngularGrid ... 6 (Lebedev-590)
Angular grid pruning method      GridPruning ... 4 (adaptive)
Weight generation scheme         WeightScheme... Becke
Basis function cutoff            BFCut       ... 1.0000e-11
Integration weight cutoff        WCut        ... 1.0000e-14
Angular grids for H and He will be reduced by one unit
Partially contracted basis set               ... off
Rotationally invariant grid construction     ... off

Total number of grid points                  ...   350787
Total number of batches                      ...     5493
Average number of points per batch           ...       63
Average number of grid points per atom       ...    12992
Time for grid setup =    6.156 sec

--------------------
COSX GRID GENERATION
--------------------

GRIDX 1
-------
General Integration Accuracy     IntAcc      ... 4.020
Radial Grid Type                 RadialGrid  ... OptM3 with GC (2021)
Angular Grid (max. ang.)         AngularGrid ... 2 (Lebedev-110)
Angular grid pruning method      GridPruning ... 4 (adaptive)
Weight generation scheme         WeightScheme... Becke
Basis function cutoff            BFCut       ... 1.0000e-11
Integration weight cutoff        WCut        ... 1.0000e-14
Angular grids for H and He will be reduced by one unit
Partially contracted basis set               ... on
Rotationally invariant grid construction     ... off

Total number of grid points                  ...    44672
Total number of batches                      ...      713
Average number of points per batch           ...       62
Average number of grid points per atom       ...     1655
UseSFitting                                  ... on

GRIDX 2
-------
General Integration Accuracy     IntAcc      ... 4.338
Radial Grid Type                 RadialGrid  ... OptM3 with GC (2021)
Angular Grid (max. ang.)         AngularGrid ... 3 (Lebedev-194)
Angular grid pruning method      GridPruning ... 4 (adaptive)
Weight generation scheme         WeightScheme... Becke
Basis function cutoff            BFCut       ... 1.0000e-11
Integration weight cutoff        WCut        ... 1.0000e-14
Angular grids for H and He will be reduced by one unit
Partially contracted basis set               ... on
Rotationally invariant grid construction     ... off

Total number of grid points                  ...    98478
Total number of batches                      ...     1551
Average number of points per batch           ...       63
Average number of grid points per atom       ...     3647
UseSFitting                                  ... on

GRIDX 3
-------
General Integration Accuracy     IntAcc      ... 4.871
Radial Grid Type                 RadialGrid  ... OptM3 with GC (2021)
Angular Grid (max. ang.)         AngularGrid ... 4 (Lebedev-302)
Angular grid pruning method      GridPruning ... 4 (adaptive)
Weight generation scheme         WeightScheme... Becke
Basis function cutoff            BFCut       ... 1.0000e-11
Integration weight cutoff        WCut        ... 1.0000e-14
Angular grids for H and He will be reduced by one unit
Partially contracted basis set               ... on
Rotationally invariant grid construction     ... off

Total number of grid points                  ...   178221
Total number of batches                      ...     2797
Average number of points per batch           ...       63
Average number of grid points per atom       ...     6601
UseSFitting                                  ... on

Time for X-Grid setup             =    7.153 sec


--------------------
CPCM SOLVATION MODEL
--------------------
CPCM parameters:
  Epsilon                                         ...      46.8260
  Refrac                                          ...       1.4170
  Rsolv                                           ...       1.3000
  Surface type                                    ... GAUSSIAN VDW
  Epsilon function type                           ...         CPCM
Solvent:                                     ... DIMETHYLSULFOXIDE
SMD-CDS solvent descriptors:
  Soln                                       ...    1.4170
  Soln25                                     ...    1.4773
  Sola                                       ...    0.0000
  Solb                                       ...    0.8800
  Solg                                       ...   61.7800
  Solc                                       ...    0.0000
  Solh                                       ...    0.0000
Radii:
 Radius for C  used is    3.4960 Bohr (=   1.8500 Ang.)
 Radius for N  used is    3.5716 Bohr (=   1.8900 Ang.)
 Radius for S  used is    4.7054 Bohr (=   2.4900 Ang.)
 Radius for H  used is    2.2677 Bohr (=   1.2000 Ang.)
Calculating surface                               ...        done! (  0.0s)
GEPOL surface points                              ...         1465
GEPOL Volume                                      ...    2155.4536
GEPOL Surface-area                                ...    1112.2083
Calculating surface distance matrix               ...        done! (  0.0s)
Performing Cholesky decomposition & store         ...        done! (  0.1s)
Overall time for CPCM initialization              ...                 0.1s
 re-compute Schwartz prescreening matrix in partically contracted basis (1) ...done (   0.205 sec)
--------------
SCF ITERATIONS
--------------
ITER       Energy         Delta-E        Max-DP      RMS-DP      [F,P]     Damp
               ***  Starting incremental Fock matrix formation  ***
  0  -1820.9385482207   0.000000000000 0.18626374  0.00122303  0.2309367 0.7000
  1  -1821.1602332654  -0.221685044775 0.14454687  0.00094162  0.1151090 0.7000
                               ***Turning on DIIS***
  2  -1821.2618697686  -0.101636503151 0.32182402  0.00214453  0.0482745 0.0000
  3  -1821.4092116526  -0.147341884062 0.05422278  0.00047741  0.0589886 0.0000
  4  -1821.4476080535  -0.038396400887 0.02836089  0.00021762  0.0104838 0.0000
  5  -1821.4491408787  -0.001532825154 0.01286472  0.00007521  0.0080390 0.0000
                      *** Initiating the SOSCF procedure ***
                           *** Shutting down DIIS ***
                      *** Re-Reading the Fockian *** 
                      *** Removing any level shift *** 
ITER      Energy       Delta-E        Grad      Rot      Max-DP    RMS-DP
  6  -1821.44951043  -0.0003695491  0.001764  0.001764  0.004144  0.000039
               *** Restarting incremental Fock matrix formation ***
  7  -1821.44963777  -0.0001273454  0.001166  0.005777  0.008032  0.000101
  8  -1821.44970370  -0.0000659233  0.000384  0.004930  0.004342  0.000052
  9  -1821.44971169  -0.0000079922  0.000402  0.000810  0.003113  0.000039
 10  -1821.44972065  -0.0000089645  0.000092  0.000557  0.001831  0.000013
 11  -1821.44972079  -0.0000001371  0.000046  0.000235  0.001102  0.000009
 12  -1821.44972124  -0.0000004455  0.000008  0.000059  0.001973  0.000016
 13  -1821.44972125  -0.0000000123  0.000006  0.000018  0.001635  0.000010
 14  -1821.44972126  -0.0000000075  0.000003  0.000013  0.002576  0.000026
 15  -1821.44972124   0.0000000113  0.000003  0.000007  0.001473  0.000020
                  ***Gradient check signals convergence***
              ***Rediagonalizing the Fockian in SOSCF/NRSCF***

               *****************************************************
               *                     SUCCESS                       *
               *           SCF CONVERGED AFTER  16 CYCLES          *
               *****************************************************

Old exchange energy                            =    -86.572136486 Eh
New exchange energy                            =    -86.572116695 Eh
Exchange energy change after final integration =      0.000019791 Eh
Total energy after final integration           =  -1821.449701471 Eh
Final COS-X integration done in                =   170.572 sec

SMD CDS free energy correction energy :                 0.54159     Kcal/mol
Total Energy after SMD CDS correction =             -1821.448838394 Eh

----------------
TOTAL SCF ENERGY
----------------

Total Energy       :        -1821.44883839 Eh          -49564.14269 eV

Components:
Nuclear Repulsion  :         1485.58698474 Eh           40424.87702 eV
Electronic Energy  :        -3307.03582314 Eh          -89989.01970 eV
One Electron Energy:        -5451.84259862 Eh         -148352.17919 eV
Two Electron Energy:         2144.80677548 Eh           58363.15949 eV
Max COSX asymmetry :            0.00000628 Eh               0.00017 eV
CPCM Dielectric    :           -0.02224834 Eh              -0.60541 eV
SMD CDS (Gcds)     :            0.00086308 Eh               0.02349 eV

Virial components:
Potential Energy   :        -3636.86316095 Eh          -98964.07785 eV
Kinetic Energy     :         1815.41432256 Eh           49399.93516 eV
Virial Ratio       :            2.00332404


DFT components:
N(Alpha)           :       75.000003121595 electrons
N(Beta)            :       75.000003121595 electrons
N(Total)           :      150.000006243191 electrons
E(XC)              :      -79.522539739431 Eh       
DFET-embed. en.    :        0.000000000000 Eh       
CPCM Solvation Model Properties:
Surface-charge          :           -0.04245074
Charge-correction       :            0.00002368 Eh               0.00064 eV
Free-energy (cav+disp)  :            0.00086308 Eh               0.02349 eV

---------------
SCF CONVERGENCE
---------------

  Last Energy change         ...   -1.7711e-08  Tolerance :   1.0000e-08
  Last MAX-Density change    ...    7.1054e-15  Tolerance :   1.0000e-07
  Last RMS-Density change    ...    1.9776e-17  Tolerance :   5.0000e-09
  Last Orbital Gradient      ...    1.6993e-06  Tolerance :   1.0000e-05
  Last Orbital Rotation      ...    8.6546e-06  Tolerance :   1.0000e-05

             **** THE GBW FILE WAS UPDATED (m062x-train-15.gbw) ****
             **** DENSITY m062x-train-15.scfp WAS UPDATED ****
             **** ENERGY FILE WAS UPDATED (m062x-train-15.en.tmp) ****
             **** THE GBW FILE WAS UPDATED (m062x-train-15.gbw) ****
             **** DENSITY m062x-train-15.scfp WAS UPDATED ****
----------------
ORBITAL ENERGIES
----------------

  NO   OCC          E(Eh)            E(eV) 
   0   2.0000     -89.978700     -2448.4449 
   1   2.0000     -89.971719     -2448.2550 
   2   2.0000     -89.968332     -2448.1628 
   3   2.0000     -14.822661      -403.3451 
   4   2.0000     -14.808961      -402.9723 
   5   2.0000     -14.762821      -401.7168 
   6   2.0000     -10.633520      -289.3528 
   7   2.0000     -10.609861      -288.7090 
   8   2.0000     -10.607197      -288.6365 
   9   2.0000     -10.590269      -288.1759 
  10   2.0000     -10.587971      -288.1133 
  11   2.0000     -10.575681      -287.7789 
  12   2.0000     -10.569479      -287.6102 
  13   2.0000     -10.565005      -287.4884 
  14   2.0000     -10.559971      -287.3514 
  15   2.0000     -10.554621      -287.2058 
  16   2.0000     -10.548615      -287.0424 
  17   2.0000     -10.537641      -286.7438 
  18   2.0000      -8.313769      -226.2292 
  19   2.0000      -8.306716      -226.0372 
  20   2.0000      -8.302852      -225.9321 
  21   2.0000      -6.232933      -169.6067 
  22   2.0000      -6.231001      -169.5542 
  23   2.0000      -6.229308      -169.5081 
  24   2.0000      -6.225955      -169.4168 
  25   2.0000      -6.223858      -169.3598 
  26   2.0000      -6.222443      -169.3213 
  27   2.0000      -6.221795      -169.3036 
  28   2.0000      -6.219978      -169.2542 
  29   2.0000      -6.218519      -169.2145 
  30   2.0000      -1.171184       -31.8695 
  31   2.0000      -1.090126       -29.6638 
  32   2.0000      -1.018851       -27.7243 
  33   2.0000      -0.993107       -27.0238 
  34   2.0000      -0.940188       -25.5838 
  35   2.0000      -0.915072       -24.9004 
  36   2.0000      -0.868514       -23.6335 
  37   2.0000      -0.851245       -23.1636 
  38   2.0000      -0.836184       -22.7537 
  39   2.0000      -0.823717       -22.4145 
  40   2.0000      -0.794089       -21.6083 
  41   2.0000      -0.762777       -20.7562 
  42   2.0000      -0.689496       -18.7622 
  43   2.0000      -0.688342       -18.7307 
  44   2.0000      -0.647371       -17.6158 
  45   2.0000      -0.641318       -17.4512 
  46   2.0000      -0.619053       -16.8453 
  47   2.0000      -0.608691       -16.5633 
  48   2.0000      -0.599966       -16.3259 
  49   2.0000      -0.561418       -15.2770 
  50   2.0000      -0.545888       -14.8544 
  51   2.0000      -0.544628       -14.8201 
  52   2.0000      -0.531080       -14.4514 
  53   2.0000      -0.507531       -13.8106 
  54   2.0000      -0.507061       -13.7978 
  55   2.0000      -0.489732       -13.3263 
  56   2.0000      -0.483419       -13.1545 
  57   2.0000      -0.473448       -12.8832 
  58   2.0000      -0.470848       -12.8124 
  59   2.0000      -0.467516       -12.7218 
  60   2.0000      -0.466711       -12.6998 
  61   2.0000      -0.446449       -12.1485 
  62   2.0000      -0.435820       -11.8593 
  63   2.0000      -0.435219       -11.8429 
  64   2.0000      -0.421502       -11.4697 
  65   2.0000      -0.413932       -11.2637 
  66   2.0000      -0.404548       -11.0083 
  67   2.0000      -0.358244        -9.7483 
  68   2.0000      -0.357225        -9.7206 
  69   2.0000      -0.344941        -9.3863 
  70   2.0000      -0.331196        -9.0123 
  71   2.0000      -0.321142        -8.7387 
  72   2.0000      -0.318058        -8.6548 
  73   2.0000      -0.299399        -8.1471 
  74   2.0000      -0.243761        -6.6331 
  75   0.0000      -0.097315        -2.6481 
  76   0.0000      -0.023295        -0.6339 
  77   0.0000       0.002533         0.0689 
  78   0.0000       0.006163         0.1677 
  79   0.0000       0.014495         0.3944 
  80   0.0000       0.014970         0.4074 
  81   0.0000       0.015757         0.4288 
  82   0.0000       0.022710         0.6180 
  83   0.0000       0.026439         0.7194 
  84   0.0000       0.029619         0.8060 
  85   0.0000       0.034186         0.9302 
  86   0.0000       0.034324         0.9340 
  87   0.0000       0.035634         0.9697 
  88   0.0000       0.037479         1.0199 
  89   0.0000       0.041739         1.1358 
  90   0.0000       0.042918         1.1679 
  91   0.0000       0.045447         1.2367 
  92   0.0000       0.052524         1.4292 
  93   0.0000       0.053468         1.4549 
  94   0.0000       0.058698         1.5973 
  95   0.0000       0.059051         1.6069 
  96   0.0000       0.060120         1.6359 
  97   0.0000       0.062870         1.7108 
  98   0.0000       0.063197         1.7197 
  99   0.0000       0.070570         1.9203 
 100   0.0000       0.071464         1.9446 
 101   0.0000       0.073506         2.0002 
 102   0.0000       0.079533         2.1642 
 103   0.0000       0.079826         2.1722 
 104   0.0000       0.086659         2.3581 
 105   0.0000       0.087338         2.3766 
 106   0.0000       0.092826         2.5259 
 107   0.0000       0.094838         2.5807 
 108   0.0000       0.099663         2.7120 
 109   0.0000       0.100314         2.7297 
 110   0.0000       0.101182         2.7533 
 111   0.0000       0.106488         2.8977 
 112   0.0000       0.109560         2.9813 
 113   0.0000       0.111129         3.0240 
 114   0.0000       0.114517         3.1162 
 115   0.0000       0.117596         3.1999 
 116   0.0000       0.121953         3.3185 
 117   0.0000       0.125740         3.4216 
 118   0.0000       0.126029         3.4294 
 119   0.0000       0.128908         3.5078 
 120   0.0000       0.130268         3.5448 
 121   0.0000       0.134648         3.6640 
 122   0.0000       0.136287         3.7086 
 123   0.0000       0.140248         3.8163 
 124   0.0000       0.143013         3.8916 
 125   0.0000       0.146639         3.9903 
 126   0.0000       0.148024         4.0279 
 127   0.0000       0.150258         4.0887 
 128   0.0000       0.152929         4.1614 
 129   0.0000       0.154136         4.1943 
 130   0.0000       0.155433         4.2295 
 131   0.0000       0.159019         4.3271 
 132   0.0000       0.161184         4.3860 
 133   0.0000       0.167222         4.5503 
 134   0.0000       0.168555         4.5866 
 135   0.0000       0.170573         4.6415 
 136   0.0000       0.171118         4.6563 
 137   0.0000       0.174634         4.7520 
 138   0.0000       0.178379         4.8539 
 139   0.0000       0.181984         4.9520 
 140   0.0000       0.185862         5.0576 
 141   0.0000       0.187895         5.1129 
 142   0.0000       0.189667         5.1611 
 143   0.0000       0.196135         5.3371 
 144   0.0000       0.198173         5.3926 
 145   0.0000       0.199864         5.4386 
 146   0.0000       0.201286         5.4773 
 147   0.0000       0.209993         5.7142 
 148   0.0000       0.210976         5.7410 
 149   0.0000       0.212720         5.7884 
 150   0.0000       0.215156         5.8547 
 151   0.0000       0.223563         6.0835 
 152   0.0000       0.227025         6.1777 
 153   0.0000       0.228532         6.2187 
 154   0.0000       0.233342         6.3496 
 155   0.0000       0.236065         6.4237 
 156   0.0000       0.240828         6.5533 
 157   0.0000       0.245177         6.6716 
 158   0.0000       0.252065         6.8590 
 159   0.0000       0.255187         6.9440 
 160   0.0000       0.256270         6.9735 
 161   0.0000       0.260878         7.0989 
 162   0.0000       0.261731         7.1221 
 163   0.0000       0.269265         7.3271 
 164   0.0000       0.271402         7.3852 
 165   0.0000       0.272075         7.4035 
 166   0.0000       0.275542         7.4979 
 167   0.0000       0.275982         7.5099 
 168   0.0000       0.282601         7.6900 
 169   0.0000       0.284758         7.7487 
 170   0.0000       0.288605         7.8533 
 171   0.0000       0.290809         7.9133 
 172   0.0000       0.293412         7.9841 
 173   0.0000       0.294734         8.0201 
 174   0.0000       0.297668         8.1000 
 175   0.0000       0.300431         8.1751 
 176   0.0000       0.304076         8.2743 
 177   0.0000       0.307228         8.3601 
 178   0.0000       0.308511         8.3950 
 179   0.0000       0.315748         8.5920 
 180   0.0000       0.317683         8.6446 
 181   0.0000       0.320103         8.7104 
 182   0.0000       0.323213         8.7951 
 183   0.0000       0.331437         9.0188 
 184   0.0000       0.333600         9.0777 
 185   0.0000       0.339687         9.2433 
 186   0.0000       0.341487         9.2923 
 187   0.0000       0.345852         9.4111 
 188   0.0000       0.351597         9.5674 
 189   0.0000       0.353485         9.6188 
 190   0.0000       0.355806         9.6820 
 191   0.0000       0.359441         9.7809 
 192   0.0000       0.361972         9.8498 
 193   0.0000       0.366909         9.9841 
 194   0.0000       0.368657        10.0317 
 195   0.0000       0.371497        10.1090 
 196   0.0000       0.372104        10.1255 
 197   0.0000       0.374963        10.2033 
 198   0.0000       0.375047        10.2055 
 199   0.0000       0.377126        10.2621 
 200   0.0000       0.379760        10.3338 
 201   0.0000       0.381740        10.3877 
 202   0.0000       0.383227        10.4281 
 203   0.0000       0.387508        10.5446 
 204   0.0000       0.388696        10.5769 
 205   0.0000       0.395833        10.7712 
 206   0.0000       0.400182        10.8895 
 207   0.0000       0.402852        10.9622 
 208   0.0000       0.405891        11.0448 
 209   0.0000       0.409214        11.1353 
 210   0.0000       0.414838        11.2883 
 211   0.0000       0.415640        11.3101 
 212   0.0000       0.420424        11.4403 
 213   0.0000       0.420846        11.4518 
 214   0.0000       0.428627        11.6635 
 215   0.0000       0.428761        11.6672 
 216   0.0000       0.432619        11.7722 
 217   0.0000       0.435847        11.8600 
 218   0.0000       0.436457        11.8766 
 219   0.0000       0.441623        12.0172 
 220   0.0000       0.447400        12.1744 
 221   0.0000       0.448749        12.2111 
 222   0.0000       0.450540        12.2598 
 223   0.0000       0.454776        12.3751 
 224   0.0000       0.456363        12.4183 
 225   0.0000       0.460065        12.5190 
 226   0.0000       0.461554        12.5595 
 227   0.0000       0.466116        12.6837 
 228   0.0000       0.467567        12.7231 
 229   0.0000       0.468588        12.7509 
 230   0.0000       0.471552        12.8316 
 231   0.0000       0.475331        12.9344 
 232   0.0000       0.481339        13.0979 
 233   0.0000       0.485159        13.2018 
 234   0.0000       0.489364        13.3163 
 235   0.0000       0.492773        13.4090 
 236   0.0000       0.495759        13.4903 
 237   0.0000       0.500395        13.6164 
 238   0.0000       0.505043        13.7429 
 239   0.0000       0.512883        13.9563 
 240   0.0000       0.514079        13.9888 
 241   0.0000       0.516523        14.0553 
 242   0.0000       0.523129        14.2351 
 243   0.0000       0.527142        14.3443 
 244   0.0000       0.529698        14.4138 
 245   0.0000       0.532397        14.4873 
 246   0.0000       0.532906        14.5011 
 247   0.0000       0.535028        14.5589 
 248   0.0000       0.539205        14.6725 
 249   0.0000       0.539462        14.6795 
[...]
Tamm-Dancoff approximation     ... operative
CIS-Integral strategy          ... AO-integrals
Integral handling              ... AO integral Direct
Max. core memory used          ... 4000 MB
Reference state                ... RHF
Generation of triplets         ... off
Follow IRoot                   ... off
Number of operators            ... 1
Orbital ranges used for CIS calculation:
 Operator 0:  Orbitals  30... 74  to  75...965
XAS localization array:
 Operator 0:  Orbitals  -1... -1

-------------------
XC-INTEGRATION GRID
-------------------

General Integration Accuracy     IntAcc      ... 3.467
Radial Grid Type                 RadialGrid  ... OptM3 with GC (2021)
Angular Grid (max. ang.)         AngularGrid ... 3 (Lebedev-194)
Angular grid pruning method      GridPruning ... 4 (adaptive)
Weight generation scheme         WeightScheme... Becke
Basis function cutoff            BFCut       ... 1.0000e-11
Integration weight cutoff        WCut        ... 1.0000e-14
Angular grids for H and He will be reduced by one unit
Partially contracted basis set               ... off
Rotationally invariant grid construction     ... off

Total number of grid points                  ...    59015
Total number of batches                      ...      933
Average number of points per batch           ...       63
Average number of grid points per atom       ...     2186

---------------------
COSX-INTEGRATION GRID
---------------------

General Integration Accuracy     IntAcc      ... 3.067
Radial Grid Type                 RadialGrid  ... OptM3 with GC (2021)
Angular Grid (max. ang.)         AngularGrid ... 2 (Lebedev-110)
Angular grid pruning method      GridPruning ... 4 (adaptive)
Weight generation scheme         WeightScheme... Becke
Basis function cutoff            BFCut       ... 1.0000e-11
Integration weight cutoff        WCut        ... 1.0000e-14
Angular grids for H and He will be reduced by one unit
Partially contracted basis set               ... on
Rotationally invariant grid construction     ... off

Total number of grid points                  ...    25821
Total number of batches                      ...      422
Average number of points per batch           ...       61
Average number of grid points per atom       ...      956

---------------
TD-DFT XC SETUP
---------------

DFT calculation                         ... on
Name of the grid file                   ... m062x-train-15_job2.grid_cis.tmp
Exchange functional (TD-DFT)            ... M062X
Correlation functional (TD-DFT)         ... M062X
Hybrid DFT                              ... on
   Exchange mixing (TD-DFT)             ...  0.540
   GGA exch. scaling (TD-DFT)           ...  0.460
   GGA corr. scaling (TD-DFT)           ...  1.000

Building densities             ... done
Calculating rho(r) on the grid ... done
Building xc-kernel on the grid ... done
                    *** TD-DFT CALCULATION INITIALIZED ***

---------------------------------
    LR-CPCM (non-equilibrium)
---------------------------------

Setting up LR-CPCM             ... done

------------------------
DAVIDSON-DIAGONALIZATION
------------------------

Dimension of the eigenvalue problem            ...  40095
Number of roots to be determined               ...     10
Maximum size of the expansion space            ...     70
Maximum number of iterations                   ...    100
Convergence tolerance for the residual         ...    1.000e-06
Convergence tolerance for the energies         ...    1.000e-06
Orthogonality tolerance                        ...    1.000e-14
Level Shift                                    ...    0.000e+00
Constructing the preconditioner                ... o.k.
Building the initial guess                     ... o.k.
Number of trial vectors determined             ...     70


                       ****Iteration    0****

   Memory handling for direct AO based CIS:
   Memory per vector needed      ...    42 MB
   Memory needed                 ...  1281 MB
   Memory available              ...  4000 MB
   Number of vectors per batch   ...    93
   Number of batches             ...     1
   Time for densities:            0.382
   Time for RI-J (Direct):       12.154
   Time for K (COSX):           169.819
   Time for XC-Integration:     124.222
   Time for LR-CPCM terms:       13.273
   Time for Sigma-Completion:     0.314
   Size of expansion space: 30
   Lowest Energy          :     0.116870179442
   Maximum Energy change  :     0.209596872018 (vector 9)
   Maximum residual norm  :     0.014798118558

                       ****Iteration    1****
   Time for densities:            0.131
   Time for RI-J (Direct):        7.208
   Time for K (COSX):            59.839
   Time for XC-Integration:      44.006
   Time for LR-CPCM terms:        6.243
   Time for Sigma-Completion:     0.140
   Size of expansion space: 40
   Lowest Energy          :     0.104719143760
   Maximum Energy change  :     0.014496885685 (vector 2)
   Maximum residual norm  :     0.000908124251

                       ****Iteration    2****
   Time for densities:            0.129
   Time for RI-J (Direct):        7.227
   Time for K (COSX):            59.882
   Time for XC-Integration:      44.333
   Time for LR-CPCM terms:        6.259
   Time for Sigma-Completion:     0.114
   Size of expansion space: 50
   Lowest Energy          :     0.104144824818
   Maximum Energy change  :     0.002448391175 (vector 7)
   Maximum residual norm  :     0.000224265042

                       ****Iteration    3****
   Time for densities:            0.129
   Time for RI-J (Direct):        7.273
   Time for K (COSX):            59.890
   Time for XC-Integration:      45.215
   Time for LR-CPCM terms:        6.260
   Time for Sigma-Completion:     0.120
   Size of expansion space: 60
   Lowest Energy          :     0.104122182225
   Maximum Energy change  :     0.000836497806 (vector 9)
   Maximum residual norm  :     0.000094115275

                       ****Iteration    4****
   Time for densities:            0.128
   Time for RI-J (Direct):        7.255
   Time for K (COSX):            60.004
   Time for XC-Integration:      45.874
   Time for LR-CPCM terms:        6.312
   Time for Sigma-Completion:     0.122
   Size of expansion space: 70
   Lowest Energy          :     0.104121464275
   Maximum Energy change  :     0.000201993043 (vector 9)
   Maximum residual norm  :     0.000019729197
   Rebuilding the expansion space

                       ****Iteration    5****
   Time for densities:            0.256
   Time for RI-J (Direct):        9.612
   Time for K (COSX):           111.817
   Time for XC-Integration:      87.382
   Time for LR-CPCM terms:        9.952
   Time for Sigma-Completion:     0.220
   Size of expansion space: 20
   Lowest Energy          :     0.104121455917
   Maximum Energy change  :     0.000049559617 (vector 9)
   Maximum residual norm  :     0.000008800088

                       ****Iteration    6****
   Time for densities:            0.130
   Time for RI-J (Direct):        7.247
   Time for K (COSX):            59.921
   Time for XC-Integration:      45.613
   Time for LR-CPCM terms:        6.254
   Time for Sigma-Completion:     0.103
   Size of expansion space: 30
   Lowest Energy          :     0.104121453459
   Maximum Energy change  :     0.000030991090 (vector 9)
   Maximum residual norm  :     0.000003540863

                       ****Iteration    7****
   Time for densities:            0.133
   Time for RI-J (Direct):        7.310
   Time for K (COSX):            59.901
   Time for XC-Integration:      46.275
   Time for LR-CPCM terms:        6.302
   Time for Sigma-Completion:     0.107
   Size of expansion space: 40
   Lowest Energy          :     0.104121453310
   Maximum Energy change  :     0.000016945980 (vector 9)
   Maximum residual norm  :     0.000002105822

                       ****Iteration    8****
   Time for densities:            0.130
   Time for RI-J (Direct):        7.239
   Time for K (COSX):            59.959
   Time for XC-Integration:      46.471
   Time for LR-CPCM terms:        6.354
   Time for Sigma-Completion:     0.106
   Size of expansion space: 50
   Lowest Energy          :     0.104121453297
   Maximum Energy change  :     0.000005701315 (vector 9)
   Maximum residual norm  :     0.000000947114

      *** CONVERGENCE OF RESIDUAL NORM REACHED ***

Storing the converged CI vectors               ... m062x-train-15_job2.cis1

                 *** DAVIDSON DONE ***

Total time for solving the CIS problem:  1375.135sec

------------------------------------
TD-DFT/TDA EXCITED STATES (SINGLETS)
------------------------------------

the weight of the individual excitations are printed if larger than 1.0e-02

STATE  1:  E=   0.104121 au      2.833 eV    22852.0 cm**-1 <S**2> =   0.000000
    67a ->  75a  :     0.014160 (c= -0.11899710)
    71a ->  75a  :     0.880312 (c=  0.93824957)
    71a ->  76a  :     0.042176 (c=  0.20536884)

STATE  2:  E=   0.107815 au      2.934 eV    23662.7 cm**-1 <S**2> =   0.000000
    73a ->  76a  :     0.014927 (c=  0.12217412)
    74a ->  75a  :     0.945227 (c= -0.97222762)

STATE  3:  E=   0.153220 au      4.169 eV    33628.0 cm**-1 <S**2> =   0.000000
    69a ->  75a  :     0.024877 (c= -0.15772399)
    70a ->  75a  :     0.012308 (c=  0.11093971)
    73a ->  75a  :     0.853042 (c=  0.92360258)
    74a ->  76a  :     0.041493 (c= -0.20369734)

STATE  4:  E=   0.163103 au      4.438 eV    35797.0 cm**-1 <S**2> =   0.000000
    70a ->  75a  :     0.446119 (c=  0.66792137)
    72a ->  75a  :     0.241088 (c= -0.49100757)
    73a ->  75a  :     0.040535 (c= -0.20133400)
    74a ->  76a  :     0.207970 (c= -0.45603692)

STATE  5:  E=   0.169515 au      4.613 eV    37204.3 cm**-1 <S**2> =   0.000000
    70a ->  75a  :     0.068254 (c= -0.26125481)
    72a ->  75a  :     0.211678 (c=  0.46008479)
    72a ->  76a  :     0.011937 (c= -0.10925480)
    73a ->  75a  :     0.013069 (c= -0.11432027)
    73a ->  76a  :     0.013782 (c= -0.11739792)
    74a ->  76a  :     0.622700 (c= -0.78911369)

STATE  6:  E=   0.174372 au      4.745 eV    38270.2 cm**-1 <S**2> =   0.000000
    67a ->  75a  :     0.846294 (c= -0.91994240)
    67a ->  76a  :     0.064259 (c= -0.25349361)
    67a ->  86a  :     0.010991 (c= -0.10483946)
    71a ->  75a  :     0.015110 (c= -0.12292324)

STATE  7:  E=   0.177909 au      4.841 eV    39046.4 cm**-1 <S**2> =   0.000000
    70a ->  75a  :     0.414013 (c= -0.64343860)
    72a ->  75a  :     0.435754 (c= -0.66011630)
    72a ->  76a  :     0.067112 (c=  0.25905964)
    74a ->  76a  :     0.040255 (c= -0.20063532)

STATE  8:  E=   0.186709 au      5.081 eV    40978.0 cm**-1 <S**2> =   0.000000
    68a ->  75a  :     0.013516 (c= -0.11625691)
    69a ->  75a  :     0.879732 (c=  0.93794052)
    69a ->  76a  :     0.022118 (c=  0.14872000)
    73a ->  75a  :     0.027514 (c=  0.16587393)

STATE  9:  E=   0.196142 au      5.337 eV    43048.2 cm**-1 <S**2> =   0.000000
    73a ->  78a  :     0.025319 (c=  0.15912038)
    74a ->  77a  :     0.620409 (c=  0.78766024)
    74a ->  78a  :     0.172875 (c=  0.41578279)
    74a ->  79a  :     0.024635 (c= -0.15695472)
    74a ->  81a  :     0.035012 (c=  0.18711597)
    74a ->  85a  :     0.066306 (c=  0.25749981)

STATE 10:  E=   0.200437 au      5.454 eV    43990.9 cm**-1 <S**2> =   0.000000
    73a ->  77a  :     0.012307 (c=  0.11093725)
    74a ->  77a  :     0.024035 (c= -0.15503086)
    74a ->  78a  :     0.232075 (c=  0.48174212)
    74a ->  81a  :     0.092536 (c= -0.30419808)
    74a ->  82a  :     0.013465 (c=  0.11604072)
    74a ->  83a  :     0.177920 (c=  0.42180602)
    74a ->  84a  :     0.013049 (c= -0.11423301)
    74a ->  87a  :     0.037484 (c= -0.19360824)
    74a ->  88a  :     0.167585 (c=  0.40937125)
    74a ->  93a  :     0.085414 (c= -0.29225613)
    74a ->  96a  :     0.026528 (c=  0.16287328)
    74a ->  98a  :     0.020863 (c=  0.14443877)


-----------------------------
TD-DFT/TDA-EXCITATION SPECTRA
-----------------------------

Center of mass = (  0.6749, -0.1258, -0.5529)
Calculating the Dipole integrals                  ... done
Transforming integrals                            ... done
Calculating the Linear Momentum integrals         ... done
Transforming integrals                            ... done
Calculating angular momentum integrals            ... done
Transforming integrals                            ... done

-----------------------------------------------------------------------------
         ABSORPTION SPECTRUM VIA TRANSITION ELECTRIC DIPOLE MOMENTS
-----------------------------------------------------------------------------
State   Energy    Wavelength  fosc         T2        TX        TY        TZ  
        (cm-1)      (nm)                 (au**2)    (au)      (au)      (au) 
-----------------------------------------------------------------------------
   1   22852.0    437.6   0.000058518   0.00084  -0.02253  -0.01134   0.01439
   2   23662.7    422.6   1.507124503  20.96813  -4.57693   0.13334   0.04503
   3   33628.0    297.4   0.030595117   0.29952  -0.04003   0.41623   0.35309
   4   35797.0    279.4   0.016329491   0.15018   0.03000  -0.29819  -0.24567
   5   37204.3    268.8   0.129684843   1.14755   0.87380   0.46793   0.40628
   6   38270.2    261.3   0.000337865   0.00291  -0.00184  -0.03471   0.04121
   7   39046.4    256.1   0.121526417   1.02462   0.26172   0.74776   0.63007
   8   40978.0    244.0   0.091885699   0.73820  -0.84221  -0.12443  -0.11575
   9   43048.2    232.3   0.000125259   0.00096   0.00275   0.01897  -0.02430
  10   43990.9    227.3   0.001338860   0.01002  -0.00538  -0.06467   0.07621

-----------------------------------------------------------------------------
         ABSORPTION SPECTRUM VIA TRANSITION VELOCITY DIPOLE MOMENTS
-----------------------------------------------------------------------------
State   Energy    Wavelength   fosc        P2         PX        PY        PZ  
        (cm-1)      (nm)                 (au**2)     (au)      (au)      (au) 
-----------------------------------------------------------------------------
   1   22852.0    437.6   0.000137255   0.00002   0.00155   0.00266  -0.00346
   2   23662.7    422.6   0.674255508   0.10904   0.32920  -0.02202  -0.01355
   3   33628.0    297.4   0.017321432   0.00398   0.02534  -0.04464  -0.03669
   4   35797.0    279.4   0.004166715   0.00102   0.01037  -0.02328  -0.01923
   5   37204.3    268.8   0.020197161   0.00514  -0.06899  -0.01425  -0.01313
   6   38270.2    261.3   0.000472648   0.00012  -0.00007  -0.00726   0.00842
   7   39046.4    256.1   0.006858613   0.00183  -0.03795   0.01538   0.01238
   8   40978.0    244.0   0.043483485   0.01218   0.08924  -0.05035  -0.04098
   9   43048.2    232.3   0.000028835   0.00001  -0.00035  -0.00179   0.00227
  10   43990.9    227.3   0.003876048   0.00117   0.00097   0.02196  -0.02612

-------------------------------------------------------------------
                             CD SPECTRUM
-------------------------------------------------------------------
State  Energy     Wavelength     R         MX        MY        MZ   
       (cm-1)       (nm)     (1e40*cgs)   (au)      (au)      (au)  
-------------------------------------------------------------------
   1   22852.0    437.6      3.58663  -0.34516  -0.08614  -0.07956
   2   23662.7    422.6     -2.36448   0.00772   0.38023  -0.45225
   3   33628.0    297.4     -0.67025   0.00330   0.19446  -0.23289
   4   35797.0    279.4     -0.09413   0.00063   0.03029  -0.03588
   5   37204.3    268.8     -0.03554   0.00174   0.08993  -0.10749
   6   38270.2    261.3      0.22916  -0.38577  -0.05767  -0.05402
   7   39046.4    256.1      0.13051  -0.00142  -0.04242   0.05137
   8   40978.0    244.0     -0.69481   0.00446   0.16749  -0.19972
   9   43048.2    232.3      0.03420  -0.04250  -0.13180  -0.11070
  10   43990.9    227.3      0.16889   0.03437  -0.03005  -0.01837

-------------------------------------------------------------------
         CD SPECTRUM VIA TRANSITION VELOCITY DIPOLE MOMENTS        
-------------------------------------------------------------------
State  Energy     Wavelength     R         MX        MY        MZ   
       (cm-1)       (nm)     (1e40*cgs)   (au)      (au)      (au)  
-------------------------------------------------------------------
   1   22852.0    437.6     -2.21944  -0.34516  -0.08614  -0.07956
   2   23662.7    422.6      1.30150   0.00772   0.38023  -0.45225
   3   33628.0    297.4     -0.16641   0.00330   0.19446  -0.23289
   4   35797.0    279.4     -0.02488   0.00063   0.03029  -0.03588
   5   37204.3    268.8      0.02844   0.00174   0.08993  -0.10749
   6   38270.2    261.3     -0.02692  -0.38577  -0.05767  -0.05402
   7   39046.4    256.1      0.09889  -0.00142  -0.04242   0.05137
   8   40978.0    244.0      0.37814   0.00446   0.16749  -0.19972
   9   43048.2    232.3     -0.00166  -0.04250  -0.13180  -0.11070
  10   43990.9    227.3     -0.34552   0.03437  -0.03005  -0.01837

Total run time:     1381.726 sec

           *** ORCA-CIS/TD-DFT FINISHED WITHOUT ERROR ***

Maximum memory used throughout the entire CIS-calculation: 1210.7 MB

-----------------------
CIS/TD-DFT TOTAL ENERGY
-----------------------

    E(SCF)  =  -1821.458681312 Eh
    DE(CIS) =      0.104121453 Eh (Root  1)
    ----------------------------- ---------
    E(tot)  =  -1821.354559859 Eh


-------------------------   --------------------
FINAL SINGLE POINT ENERGY     -1821.354559858643
-------------------------   --------------------


                            ***************************************
                            *     ORCA property calculations      *
                            ***************************************

                                    ---------------------
                                    Active property flags
                                    ---------------------
   (+) Dipole Moment


------------------------------------------------------------------------------
                       ORCA ELECTRIC PROPERTIES CALCULATION
------------------------------------------------------------------------------

Dipole Moment Calculation                       ... on
Quadrupole Moment Calculation                   ... off
Polarizability Calculation                      ... off
GBWName                                         ... m062x-train-15_job2.gbw
Electron density                                ... m062x-train-15_job2.scfp
The origin for moment calculation is the CENTER OF MASS  = ( 0.674944, -0.125799 -0.552887)

-------------
DIPOLE MOMENT
-------------
                                X             Y             Z
Electronic contribution:      8.08776      -1.77328      -1.40495
Nuclear contribution   :     -7.34574       2.68353       2.18488
                        -----------------------------------------
Total Dipole Moment    :      0.74202       0.91026       0.77994
                        -----------------------------------------
Magnitude (a.u.)       :      1.40977
Magnitude (Debye)      :      3.58336



--------------------
Rotational spectrum 
--------------------
 
Rotational constants in cm-1:     0.050415     0.003411     0.003197 
Rotational constants in MHz :  1511.411854   102.260692    95.837311 

 Dipole components along the rotational axes: 
x,y,z [a.u.] :     0.699723     1.223856     0.004953 
x,y,z [Debye]:     1.778553     3.110796     0.012588 

 

Timings for individual modules:

Sum of individual times         ...     1791.031 sec (=  29.851 min)
GTO integral calculation        ...        3.604 sec (=   0.060 min)   0.2 %
SCF iterations                  ...      404.210 sec (=   6.737 min)  22.6 %
CIS module                      ...     1383.217 sec (=  23.054 min)  77.2 %



                             ****ORCA TERMINATED NORMALLY****
TOTAL RUN TIME: 0 days 4 hours 23 minutes 11 seconds 674 msec
