
                                 *****************
                                 * O   R   C   A *
                                 *****************

                                            #,                                       
                                            ###                                      
                                            ####                                     
                                            #####                                    
                                            ######                                   
                                           ########,                                 
                                     ,,################,,,,,                         
                               ,,#################################,,                 
                          ,,##########################################,,             
                       ,#########################################, ''#####,          
                    ,#############################################,,   '####,        
                  ,##################################################,,,,####,       
                ,###########''''           ''''###############################       
              ,#####''   ,,,,##########,,,,          '''####'''          '####       
            ,##' ,,,,###########################,,,                        '##       
           ' ,,###''''                  '''############,,,                           
         ,,##''                                '''############,,,,        ,,,,,,###''
      ,#''                                            '''#######################'''  
     '                                                          ''''####''''         
             ,#######,   #######,   ,#######,      ##                                
            ,#'     '#,  ##    ##  ,#'     '#,    #''#        ######   ,####,        
            ##       ##  ##   ,#'  ##            #'  '#       #        #'  '#        
            ##       ##  #######   ##           ,######,      #####,   #    #        
            '#,     ,#'  ##    ##  '#,     ,#' ,#      #,         ##   #,  ,#        
             '#######'   ##     ##  '#######'  #'      '#     #####' # '####'        



                  #######################################################
                  #                        -***-                        #
                  #          Department of theory and spectroscopy      #
                  #    Directorship and core code : Frank Neese         #
                  #        Max Planck Institute fuer Kohlenforschung    #
                  #                Kaiser Wilhelm Platz 1               #
                  #                 D-45470 Muelheim/Ruhr               #
                  #                      Germany                        #
                  #                                                     #
                  #                  All rights reserved                #
                  #                        -***-                        #
                  #######################################################


                         Program Version 5.0.2 -  RELEASE  -


 With contributions from (in alphabetic order):
   Daniel Aravena         : Magnetic Suceptibility
   Michael Atanasov       : Ab Initio Ligand Field Theory (pilot matlab implementation)
   Alexander A. Auer      : GIAO ZORA, VPT2 properties, NMR spectrum
   Ute Becker             : Parallelization
   Giovanni Bistoni       : ED, misc. LED, open-shell LED, HFLD
   Martin Brehm           : Molecular dynamics
   Dmytro Bykov           : SCF Hessian
   Vijay G. Chilkuri      : MRCI spin determinant printing, contributions to CSF-ICE
   Dipayan Datta          : RHF DLPNO-CCSD density
   Achintya Kumar Dutta   : EOM-CC, STEOM-CC
   Dmitry Ganyushin       : Spin-Orbit,Spin-Spin,Magnetic field MRCI
   Miquel Garcia          : C-PCM and meta-GGA Hessian, CC/C-PCM, Gaussian charge scheme
   Yang Guo               : DLPNO-NEVPT2, F12-NEVPT2, CIM, IAO-localization
   Andreas Hansen         : Spin unrestricted coupled pair/coupled cluster methods
   Benjamin Helmich-Paris : MC-RPA, TRAH-SCF, COSX integrals
   Lee Huntington         : MR-EOM, pCC
   Robert Izsak           : Overlap fitted RIJCOSX, COSX-SCS-MP3, EOM
   Marcus Kettner         : VPT2
   Christian Kollmar      : KDIIS, OOCD, Brueckner-CCSD(T), CCSD density, CASPT2, CASPT2-K
   Simone Kossmann        : Meta GGA functionals, TD-DFT gradient, OOMP2, MP2 Hessian
   Martin Krupicka        : Initial AUTO-CI
   Lucas Lang             : DCDCAS
   Marvin Lechner         : AUTO-CI (C++ implementation), FIC-MRCC
   Dagmar Lenk            : GEPOL surface, SMD
   Dimitrios Liakos       : Extrapolation schemes; Compound Job, initial MDCI parallelization
   Dimitrios Manganas     : Further ROCIS development; embedding schemes
   Dimitrios Pantazis     : SARC Basis sets
   Anastasios Papadopoulos: AUTO-CI, single reference methods and gradients
   Taras Petrenko         : DFT Hessian,TD-DFT gradient, ASA, ECA, R-Raman, ABS, FL, XAS/XES, NRVS
   Peter Pinski           : DLPNO-MP2, DLPNO-MP2 Gradient
   Christoph Reimann      : Effective Core Potentials
   Marius Retegan         : Local ZFS, SOC
   Christoph Riplinger    : Optimizer, TS searches, QM/MM, DLPNO-CCSD(T), (RO)-DLPNO pert. Triples
   Tobias Risthaus        : Range-separated hybrids, TD-DFT gradient, RPA, STAB
   Michael Roemelt        : Original ROCIS implementation
   Masaaki Saitow         : Open-shell DLPNO-CCSD energy and density
   Barbara Sandhoefer     : DKH picture change effects
   Avijit Sen             : IP-ROCIS
   Kantharuban Sivalingam : CASSCF convergence, NEVPT2, FIC-MRCI
   Bernardo de Souza      : ESD, SOC TD-DFT
   Georgi Stoychev        : AutoAux, RI-MP2 NMR, DLPNO-MP2 response
   Willem Van den Heuvel  : Paramagnetic NMR
   Boris Wezisla          : Elementary symmetry handling
   Frank Wennmohs         : Technical directorship


 We gratefully acknowledge several colleagues who have allowed us to
 interface, adapt or use parts of their codes:
   Stefan Grimme, W. Hujo, H. Kruse, P. Pracht,  : VdW corrections, initial TS optimization,
                  C. Bannwarth, S. Ehlert          DFT functionals, gCP, sTDA/sTD-DF
   Ed Valeev, F. Pavosevic, A. Kumar             : LibInt (2-el integral package), F12 methods
   Garnet Chan, S. Sharma, J. Yang, R. Olivares  : DMRG
   Ulf Ekstrom                                   : XCFun DFT Library
   Mihaly Kallay                                 : mrcc  (arbitrary order and MRCC methods)
   Jiri Pittner, Ondrej Demel                    : Mk-CCSD
   Frank Weinhold                                : gennbo (NPA and NBO analysis)
   Christopher J. Cramer and Donald G. Truhlar   : smd solvation model
   Lars Goerigk                                  : TD-DFT with DH, B97 family of functionals
   V. Asgeirsson, H. Jonsson                     : NEB implementation
   FAccTs GmbH                                   : IRC, NEB, NEB-TS, DLPNO-Multilevel, CI-OPT
                                                   MM, QMMM, 2- and 3-layer-ONIOM, Crystal-QMMM,
                                                   LR-CPCM, SF, NACMEs, symmetry and pop. for TD-DFT,
                                                   nearIR, NL-DFT gradient (VV10), updates on ESD,
                                                   ML-optimized integration grids
   S Lehtola, MJT Oliveira, MAL Marques          : LibXC Library
   Liviu Ungur et al                             : ANISO software


 Your calculation uses the libint2 library for the computation of 2-el integrals
 For citations please refer to: http://libint.valeyev.net

 Your ORCA version has been built with support for libXC version: 5.1.0
 For citations please refer to: https://tddft.org/programs/libxc/

 This ORCA versions uses:
   CBLAS   interface :  Fast vector & matrix operations
   LAPACKE interface :  Fast linear algebra routines
   SCALAPACK package :  Parallel linear algebra routines
   Shared memory     :  Shared parallel matrices
   BLAS/LAPACK       :  OpenBLAS 0.3.15  USE64BITINT DYNAMIC_ARCH NO_AFFINITY Haswell SINGLE_THREADED
        Core in use  :  Haswell
   Copyright (c) 2011-2014, The OpenBLAS Project


Your calculation utilizes the atom-pairwise dispersion correction
with the Becke-Johnson damping scheme (D3BJ)
Cite in your paper:
S.Grimme, S.Ehrlich, L.Goerigk, J Comput Chem, (2011), 32, 1456–1465 
S.Grimme, J.Antony, S.Ehrlich and H.Krieg, J.Chem.Phys., 132, (2010), 154104 
   

Your calculation utilizes the SMD solvation module
Please cite in your paper:
A.V. Marenich, C.J. Cramer, D.G. Truhlar J. Phys. Chem. B, 113, (2009), 6378 

================================================================================

----- Orbital basis set information -----
Your calculation utilizes the basis: aug-cc-pVTZ 
    H, B-Ne : Obtained from the ccRepo (grant-hill.group.shef.ac.uk/ccrepo) Feb. 2017
              R. A. Kendall, T. H. Dunning, Jr., R. J. Harrison, J. Chem. Phys. 96, 6796 (1992)
         He : Obtained from the ccRepo (grant-hill.group.shef.ac.uk/ccrepo) Feb. 2017
              D. E. Woon, T. H. Dunning, Jr., J. Chem. Phys. 100, 2975 (1994)
  Li-Be, Na : Obtained from the ccRepo (grant-hill.group.shef.ac.uk/ccrepo) Feb. 2017
              B. P. Prascher, D. E. Woon, K. A. Peterson, T. H. Dunning, Jr., A. K. Wilson, Theor. Chem. Acc. 128, 69 (2011)
         Mg : Obtained from the Peterson Research Group Website (tyr0.chem.wsu.edu/~kipeters) Feb. 2017
              B. P. Prascher, D. E. Woon, K. A. Peterson, T. H. Dunning, Jr., A. K. Wilson, Theor. Chem. Acc. 128, 69 (2011)
      Al-Ar : Obtained from the ccRepo (grant-hill.group.shef.ac.uk/ccrepo) Feb. 2017
              D. E. Woon, T. H. Dunning, Jr., J. Chem. Phys. 98, 1358 (1993)
      Sc-Zn : Obtained from the ccRepo (grant-hill.group.shef.ac.uk/ccrepo) Feb. 2017
              N. B. Balabanov, K. A. Peterson, J. Chem. Phys. 123, 064107 (2005)
              N. B. Balabanov, K. A. Peterson, J. Chem. Phys. 125, 074110 (2006)
      Ga-Kr : Obtained from the ccRepo (grant-hill.group.shef.ac.uk/ccrepo) Feb. 2017
              A. K. Wilson, D. E. Woon, K. A. Peterson, T. H. Dunning, Jr., J. Chem. Phys. 110, 7667 (1999)
     Ag, Au : Obtained from the Peterson Research Group Website (tyr0.chem.wsu.edu/~kipeters) Feb. 2017
              K. A. Peterson, C. Puzzarini, Theor. Chem. Acc. 114, 283 (2005)

The basis set includes element-specific modifications.

Your calculation utilizes the basis: cc-pVTZ 
       H, B-Ne : Obtained from the ccRepo (grant-hill.group.shef.ac.uk/ccrepo) Feb. 2017
                 T. H. Dunning, Jr., J. Chem. Phys. 90, 1007 (1989)
            He : Obtained from the ccRepo (grant-hill.group.shef.ac.uk/ccrepo) Feb. 2017
                 D. E. Woon, T. H. Dunning, Jr., J. Chem. Phys. 100, 2975 (1994)
  Li-Be, Na-Mg : Obtained from the ccRepo (grant-hill.group.shef.ac.uk/ccrepo) Feb. 2017
                 B. P. Prascher, D. E. Woon, K. A. Peterson, T. H. Dunning, Jr., A. K. Wilson, Theor. Chem. Acc. 128, 69 (2011)
         Al-Ar : Obtained from the ccRepo (grant-hill.group.shef.ac.uk/ccrepo) Feb. 2017
                 D. E. Woon, T. H. Dunning, Jr., J. Chem. Phys. 98, 1358 (1993)
            Ca : Obtained from the Peterson Research Group Website (tyr0.chem.wsu.edu/~kipeters) Feb. 2017
                 J. Koput, K. A. Peterson, J. Phys. Chem. 106, 9595 (2002)
         Sc-Zn : Obtained from the ccRepo (grant-hill.group.shef.ac.uk/ccrepo) Feb. 2017
                 N. B. Balabanov, K. A. Peterson, J. Chem. Phys. 123, 064107 (2005)
                 N. B. Balabanov, K. A. Peterson, J. Chem. Phys. 125, 074110 (2006)
         Ga-Kr : Obtained from the ccRepo (grant-hill.group.shef.ac.uk/ccrepo) Feb. 2017
                 A. K. Wilson, D. E. Woon, K. A. Peterson, T. H. Dunning, Jr., J. Chem. Phys. 110, 7667 (1999)
             Y : Obtained from the ccRepo (grant-hill.group.shef.ac.uk/ccrepo) Feb. 2017
                 K. A. Peterson, D. Figgen, M. Dolg, H. Stoll, J. Chem. Phys. 126, 124101 (2007)
        Ag, Au : Obtained from the Peterson Research Group Website (tyr0.chem.wsu.edu/~kipeters) Feb. 2017
                 K. A. Peterson, C. Puzzarini, Theor. Chem. Acc. 114, 283 (2005)

----- AuxJ basis set information -----
Your calculation utilizes the auxiliary basis: aug-cc-pVTZ/JK 
  H, B-F, Al-Cl, Ga-Br : Obtained from the TURBOMOLE 7.0 basis set library

The basis set includes element-specific modifications.

Your calculation utilizes the auxiliary basis: cc-pVTZ/JK 
  H, B-F, Al-Cl, Ga-Br : Obtained from the TURBOMOLE 7.0 basis set library

----- AuxC basis set information -----
Your calculation utilizes the auxiliary basis: aug-cc-pVTZ/C 
  H-He, B-F, Al-Ar, Ga-Kr : Obtained from the EMSL Basis Set Exchange (bse.pnl.gov) Feb. 2017
                            F. Weigend, A. Kohn, C. Hattig, J. Chem. Phys. 116, 3175 (2002)
                   Be, Mg : Obtained from the TURBOMOLE 7.0 basis set library
                            C. Haettig, Phys. Chem. Chem. Phys. 7, 59 (2005)
                       Ne : Obtained from the EMSL Basis Set Exchange (bse.pnl.gov) Feb. 2017
                            C. Haettig, Phys. Chem. Chem. Phys. 7, 59 (2005)
                            F. Weigend, A. Kohn, C. Hattig, J. Chem. Phys. 116, 3175 (2002)
                    Sc-Zn : Obtained from the EMSL Basis Set Exchange (bse.pnl.gov) Feb. 2017
                            J. G. Hill, J. A. Platts, J. Chem. Phys. 128, 044104 (2008)

The basis set includes element-specific modifications.

Your calculation utilizes the auxiliary basis: cc-pVTZ/C 
  Obtained from the EMSL Basis Set Exchange (bse.pnl.gov) Feb. 2017
  H-He, B-F, Al-Ar, Ga-Kr : F. Weigend, A. Kohn, C. Hattig, J. Chem. Phys. 116, 3175 (2002)
             Li-Be, Na-Mg : C. Haettig, Phys. Chem. Chem. Phys. 7, 59 (2005)
                       Ne : C. Haettig, Phys. Chem. Chem. Phys. 7, 59 (2005)
                            F. Weigend, A. Kohn, C. Hattig, J. Chem. Phys. 116, 3175 (2002)
                    Sc-Zn : J. G. Hill, J. A. Platts, J. Chem. Phys. 128, 044104 (2008)

================================================================================
                                        WARNINGS
                       Please study these warnings very carefully!
================================================================================


WARNING: Geometry Optimization
  ===> : Switching off AutoStart
         For restart on a previous wavefunction, please use MOREAD

INFO   : the flag for use of the SHARK integral package has been found!



***************************************
The coordinates will be read from file: 
***************************************


Your calculation utilizes the atom-pairwise dispersion correction
with the Becke-Johnson damping scheme (D3BJ)
Cite in your paper:
S.Grimme, S.Ehrlich, L.Goerigk, J Comput Chem, (2011), 32, 1456–1465 
S.Grimme, J.Antony, S.Ehrlich and H.Krieg, J.Chem.Phys., 132, (2010), 154104 
   

Your calculation utilizes the SMD solvation module
Please cite in your paper:
A.V. Marenich, C.J. Cramer, D.G. Truhlar J. Phys. Chem. B, 113, (2009), 6378 

================================================================================

----- Orbital basis set information -----
Your calculation utilizes the basis: aug-cc-pVTZ 
    H, B-Ne : Obtained from the ccRepo (grant-hill.group.shef.ac.uk/ccrepo) Feb. 2017
              R. A. Kendall, T. H. Dunning, Jr., R. J. Harrison, J. Chem. Phys. 96, 6796 (1992)
         He : Obtained from the ccRepo (grant-hill.group.shef.ac.uk/ccrepo) Feb. 2017
              D. E. Woon, T. H. Dunning, Jr., J. Chem. Phys. 100, 2975 (1994)
  Li-Be, Na : Obtained from the ccRepo (grant-hill.group.shef.ac.uk/ccrepo) Feb. 2017
              B. P. Prascher, D. E. Woon, K. A. Peterson, T. H. Dunning, Jr., A. K. Wilson, Theor. Chem. Acc. 128, 69 (2011)
         Mg : Obtained from the Peterson Research Group Website (tyr0.chem.wsu.edu/~kipeters) Feb. 2017
              B. P. Prascher, D. E. Woon, K. A. Peterson, T. H. Dunning, Jr., A. K. Wilson, Theor. Chem. Acc. 128, 69 (2011)
      Al-Ar : Obtained from the ccRepo (grant-hill.group.shef.ac.uk/ccrepo) Feb. 2017
              D. E. Woon, T. H. Dunning, Jr., J. Chem. Phys. 98, 1358 (1993)
      Sc-Zn : Obtained from the ccRepo (grant-hill.group.shef.ac.uk/ccrepo) Feb. 2017
              N. B. Balabanov, K. A. Peterson, J. Chem. Phys. 123, 064107 (2005)
              N. B. Balabanov, K. A. Peterson, J. Chem. Phys. 125, 074110 (2006)
      Ga-Kr : Obtained from the ccRepo (grant-hill.group.shef.ac.uk/ccrepo) Feb. 2017
              A. K. Wilson, D. E. Woon, K. A. Peterson, T. H. Dunning, Jr., J. Chem. Phys. 110, 7667 (1999)
     Ag, Au : Obtained from the Peterson Research Group Website (tyr0.chem.wsu.edu/~kipeters) Feb. 2017
              K. A. Peterson, C. Puzzarini, Theor. Chem. Acc. 114, 283 (2005)

The basis set includes element-specific modifications.

Your calculation utilizes the basis: cc-pVTZ 
       H, B-Ne : Obtained from the ccRepo (grant-hill.group.shef.ac.uk/ccrepo) Feb. 2017
                 T. H. Dunning, Jr., J. Chem. Phys. 90, 1007 (1989)
            He : Obtained from the ccRepo (grant-hill.group.shef.ac.uk/ccrepo) Feb. 2017
                 D. E. Woon, T. H. Dunning, Jr., J. Chem. Phys. 100, 2975 (1994)
  Li-Be, Na-Mg : Obtained from the ccRepo (grant-hill.group.shef.ac.uk/ccrepo) Feb. 2017
                 B. P. Prascher, D. E. Woon, K. A. Peterson, T. H. Dunning, Jr., A. K. Wilson, Theor. Chem. Acc. 128, 69 (2011)
         Al-Ar : Obtained from the ccRepo (grant-hill.group.shef.ac.uk/ccrepo) Feb. 2017
                 D. E. Woon, T. H. Dunning, Jr., J. Chem. Phys. 98, 1358 (1993)
            Ca : Obtained from the Peterson Research Group Website (tyr0.chem.wsu.edu/~kipeters) Feb. 2017
                 J. Koput, K. A. Peterson, J. Phys. Chem. 106, 9595 (2002)
         Sc-Zn : Obtained from the ccRepo (grant-hill.group.shef.ac.uk/ccrepo) Feb. 2017
                 N. B. Balabanov, K. A. Peterson, J. Chem. Phys. 123, 064107 (2005)
                 N. B. Balabanov, K. A. Peterson, J. Chem. Phys. 125, 074110 (2006)
         Ga-Kr : Obtained from the ccRepo (grant-hill.group.shef.ac.uk/ccrepo) Feb. 2017
                 A. K. Wilson, D. E. Woon, K. A. Peterson, T. H. Dunning, Jr., J. Chem. Phys. 110, 7667 (1999)
             Y : Obtained from the ccRepo (grant-hill.group.shef.ac.uk/ccrepo) Feb. 2017
                 K. A. Peterson, D. Figgen, M. Dolg, H. Stoll, J. Chem. Phys. 126, 124101 (2007)
        Ag, Au : Obtained from the Peterson Research Group Website (tyr0.chem.wsu.edu/~kipeters) Feb. 2017
                 K. A. Peterson, C. Puzzarini, Theor. Chem. Acc. 114, 283 (2005)

----- AuxJ basis set information -----
Your calculation utilizes the auxiliary basis: aug-cc-pVTZ/JK 
  H, B-F, Al-Cl, Ga-Br : Obtained from the TURBOMOLE 7.0 basis set library

The basis set includes element-specific modifications.

Your calculation utilizes the auxiliary basis: cc-pVTZ/JK 
  H, B-F, Al-Cl, Ga-Br : Obtained from the TURBOMOLE 7.0 basis set library

----- AuxC basis set information -----
Your calculation utilizes the auxiliary basis: aug-cc-pVTZ/C 
  H-He, B-F, Al-Ar, Ga-Kr : Obtained from the EMSL Basis Set Exchange (bse.pnl.gov) Feb. 2017
                            F. Weigend, A. Kohn, C. Hattig, J. Chem. Phys. 116, 3175 (2002)
                   Be, Mg : Obtained from the TURBOMOLE 7.0 basis set library
                            C. Haettig, Phys. Chem. Chem. Phys. 7, 59 (2005)
                       Ne : Obtained from the EMSL Basis Set Exchange (bse.pnl.gov) Feb. 2017
                            C. Haettig, Phys. Chem. Chem. Phys. 7, 59 (2005)
                            F. Weigend, A. Kohn, C. Hattig, J. Chem. Phys. 116, 3175 (2002)
                    Sc-Zn : Obtained from the EMSL Basis Set Exchange (bse.pnl.gov) Feb. 2017
                            J. G. Hill, J. A. Platts, J. Chem. Phys. 128, 044104 (2008)

The basis set includes element-specific modifications.

Your calculation utilizes the auxiliary basis: cc-pVTZ/C 
  Obtained from the EMSL Basis Set Exchange (bse.pnl.gov) Feb. 2017
  H-He, B-F, Al-Ar, Ga-Kr : F. Weigend, A. Kohn, C. Hattig, J. Chem. Phys. 116, 3175 (2002)
             Li-Be, Na-Mg : C. Haettig, Phys. Chem. Chem. Phys. 7, 59 (2005)
                       Ne : C. Haettig, Phys. Chem. Chem. Phys. 7, 59 (2005)
                            F. Weigend, A. Kohn, C. Hattig, J. Chem. Phys. 116, 3175 (2002)
                    Sc-Zn : J. G. Hill, J. A. Platts, J. Chem. Phys. 128, 044104 (2008)

================================================================================
                                        WARNINGS
                       Please study these warnings very carefully!
================================================================================

INFO   : Checking CIS options ...
  ===> : (D) CORRECTION FOUND - SETTING MODE=3
  ===> : JK MODE FOUND - ACTIVATING RI-MP2 CODE
  ===> : MP2 AND CIS FOUND - CHECKING
WARNING: CIS(D) and MP2 runs must have the same orbital window
  ===> : adjusting orbital windows

WARNING: No MP2 level density has been requested!
         To caclulate MP2 level properties use
         %mp2 Density relaxed end
         or
         %mp2 Density unrelaxed end
         Otherwise for double-hybrid DFT only the energy is correct!

WARNING: The frozen-core approximation is turned on by default for 
         the MP2 part of double-hybrid DFT.

INFO   : the flag for use of the SHARK integral package has been found!

================================================================================
                                       INPUT FILE
================================================================================
NAME = optpbed3-b2plyp-train-15.inp
|  1> ! pbe0 d3bj aug-cc-PVTZ RIJCOSX Opt
|  2> %maxcore 4000
|  3> %basis
|  4>  AuxJ "aug-cc-PVTZ/JK"
|  5>  AuxC "aug-cc-PVTZ/C"
|  6>  newGTO H "cc-PVTZ" end
|  7>  newAuxJGTO H "cc-PVTZ/JK" end
|  8>  newAuxCGTO H "cc-PVTZ/C" end
|  9> end
| 10> %cpcm
| 11>  SMD true
| 12>  SMDsolvent "dimethylsulfoxide"
| 13> end
| 14> %pal nprocs 4 end
| 15> * xyz 0 1
| 16> C         -6.40460        1.20310        0.64210
| 17> C         -5.24970        0.46740        0.07220
| 18> C         -5.28390       -0.60600       -0.78920
| 19> N         -4.10750       -1.10170       -1.17240
| 20> C         -3.10180       -0.47260       -0.65330
| 21> N         -1.84160       -0.77160       -0.88030
| 22> N         -0.94070       -0.06400       -0.28470
| 23> C          0.33600       -0.36430       -0.52760
| 24> C          0.92970       -1.31870       -1.34880
| 25> C          2.31270       -1.28290       -1.30880
| 26> C          2.81780       -0.30790       -0.46080
| 27> C          4.18450       -0.01940       -0.19830
| 28> C          4.70860        0.93560        0.64110
| 29> C          6.11230        0.94260        0.65870
| 30> C          6.65350        0.00020       -0.16130
| 31> S          5.45820       -0.92080       -0.97660
| 32> S          1.54470        0.58790        0.30300
| 33> S         -3.62590        0.89480        0.43750
| 34> H         -7.33680        0.75810        0.30210
| 35> H         -6.37820        2.24890        0.33630
| 36> H         -6.37380        1.17710        1.73100
| 37> H         -6.18500       -1.05910       -1.16430
| 38> H          0.33790       -1.99490       -1.93880
| 39> H          2.95460       -1.93830       -1.87160
| 40> H          4.09050        1.60000        1.21750
| 41> H          6.69910        1.61820        1.25460
| 42> H          7.68910       -0.21160       -0.33850
| 43> *
| 44> 
| 45> 
| 46> $new_job
| 47> ! b2plyp aug-cc-PVTZ RIJCOSX SP
| 48> %maxcore 4000
| 49> %basis
| 50>  AuxJ "aug-cc-PVTZ/JK"
| 51>  AuxC "aug-cc-PVTZ/C"
| 52>  newGTO H "cc-PVTZ" end
| 53>  newAuxJGTO H "cc-PVTZ/JK" end
| 54>  newAuxCGTO H "cc-PVTZ/C" end
| 55> end
| 56> %cpcm
| 57>  SMD true
| 58>  SMDsolvent "dimethylsulfoxide"
| 59> end
| 60> %pal nprocs 4 end
| 61> %tddft
| 62>  nroots 10
| 63>  maxdim 7
| 64> end
| 65> * xyzfile 0 1
| 66> 
| 67>                          ****END OF INPUT****
================================================================================


                 $$$$$$$$$$$$$$$$$$$$$$$$$$$$$$$$$$$$$$$$$$$$$$ 
                 $ THERE ARE  2 JOBS TO BE PROCESSED THIS RUN $
                 $$$$$$$$$$$$$$$$$$$$$$$$$$$$$$$$$$$$$$$$$$$$$$ 




                 $$$$$$$$$$$$$$$$  JOB NUMBER  1 $$$$$$$$$$$$$$


                       *****************************
                       * Geometry Optimization Run *
                       *****************************

Geometry optimization settings:
Update method            Update   .... BFGS
Choice of coordinates    CoordSys .... Z-matrix Internals
Initial Hessian          InHess   .... Almoef's Model

Convergence Tolerances:
Energy Change            TolE     ....  5.0000e-06 Eh
Max. Gradient            TolMAXG  ....  3.0000e-04 Eh/bohr
RMS Gradient             TolRMSG  ....  1.0000e-04 Eh/bohr
Max. Displacement        TolMAXD  ....  4.0000e-03 bohr
RMS Displacement         TolRMSD  ....  2.0000e-03 bohr
Strict Convergence                ....  False
------------------------------------------------------------------------------
                        ORCA OPTIMIZATION COORDINATE SETUP
------------------------------------------------------------------------------

The optimization will be done in new redundant internal coordinates
Making redundant internal coordinates   ...  (new redundants) done
Evaluating the initial hessian          ...  (Almloef) done
Evaluating the coordinates              ...  done
Calculating the B-matrix                .... done
Calculating the G-matrix                .... done
Diagonalizing the G-matrix              .... done
Small eigenvalue found = 1.880e-03
Small eigenvalue found = 9.429e-03
Small eigenvalue found = 1.737e-02
Small eigenvalue found = 1.920e-02
Small eigenvalue found = 2.312e-02
The first mode is                       ....   58
The number of degrees of freedom        ....   75

    -----------------------------------------------------------------
                    Redundant Internal Coordinates


    -----------------------------------------------------------------
         Definition                    Initial Value    Approx d2E/dq
    -----------------------------------------------------------------
      1. B(C   1,C   0)                  1.4832         0.443680   
      2. B(C   2,C   1)                  1.3767         0.656025   
      3. B(N   3,C   2)                  1.3328         0.690338   
      4. B(C   4,N   3)                  1.2949         0.793714   
      5. B(N   5,C   4)                  1.3149         0.737308   
      6. B(N   6,N   5)                  1.2911         0.720655   
      7. B(C   7,N   6)                  1.3338         0.687807   
      8. B(C   8,C   7)                  1.3920         0.620170   
      9. B(C   9,C   8)                  1.3840         0.638624   
     10. B(C  10,C   9)                  1.3874         0.630813   
     11. B(C  11,C  10)                  1.4213         0.556993   
     12. B(C  12,C  11)                  1.3752         0.659598   
     13. B(C  13,C  12)                  1.4038         0.593851   
     14. B(C  14,C  13)                  1.3614         0.694009   
     15. B(S  15,C  11)                  1.7437         0.459364   
     16. B(S  15,C  14)                  1.7151         0.510235   
     17. B(S  16,C  10)                  1.7340         0.476139   
     18. B(S  16,C   7)                  1.7486         0.451245   
     19. B(S  17,C   4)                  1.8260         0.339533   
     20. B(S  17,C   1)                  1.7184         0.504187   
     21. B(H  18,C   0)                  1.0875         0.363444   
     22. B(H  19,C   0)                  1.0899         0.360216   
     23. B(H  20,C   0)                  1.0896         0.360569   
     24. B(H  21,C   2)                  1.0761         0.378972   
     25. B(H  22,C   8)                  1.0750         0.380533   
     26. B(H  23,C   9)                  1.0763         0.378747   
     27. B(H  24,C  12)                  1.0750         0.380443   
     28. B(H  25,C  13)                  1.0751         0.380343   
     29. B(H  26,C  14)                  1.0718         0.385018   
     30. A(H  18,C   0,H  20)          109.0807         0.291322   
     31. A(C   1,C   0,H  20)          110.4954         0.333732   
     32. A(C   1,C   0,H  18)          110.1432         0.334172   
     33. A(H  19,C   0,H  20)          107.6133         0.290914   
     34. A(C   1,C   0,H  19)          110.4435         0.333677   
     35. A(H  18,C   0,H  19)          109.0069         0.291277   
     36. A(C   2,C   1,S  17)          110.5123         0.445940   
     37. A(C   0,C   1,S  17)          122.0560         0.415702   
     38. A(C   0,C   1,C   2)          127.4316         0.413013   
     39. A(N   3,C   2,H  21)          118.8342         0.360300   
     40. A(C   1,C   2,H  21)          124.5546         0.359413   
     41. A(C   1,C   2,N   3)          116.6112         0.444164   
     42. A(C   2,N   3,C   4)          112.9278         0.456763   
     43. A(N   5,C   4,S  17)          123.2627         0.421372   
     44. A(N   3,C   4,S  17)          112.3572         0.426964   
     45. A(N   3,C   4,N   5)          124.3799         0.462283   
     46. A(C   4,N   5,N   6)          117.6752         0.451148   
     47. A(N   5,N   6,C   7)          117.4174         0.445496   
     48. A(N   6,C   7,C   8)          132.0685         0.439383   
     49. A(C   8,C   7,S  16)          111.0245         0.432689   
     50. A(N   6,C   7,S  16)          116.9060         0.437941   
     51. A(C   9,C   8,H  22)          125.6084         0.358022   
     52. A(C   7,C   8,H  22)          121.3501         0.356243   
     53. A(C   7,C   8,C   9)          113.0414         0.436407   
     54. A(C  10,C   9,H  23)          122.0351         0.356989   
     55. A(C   8,C   9,H  23)          124.4096         0.357736   
     56. A(C   8,C   9,C  10)          113.5552         0.437747   
     57. A(C   9,C  10,C  11)          127.2739         0.427117   
     58. A(C  11,C  10,S  16)          121.3188         0.428534   
     59. A(C   9,C  10,S  16)          111.4073         0.438234   
     60. A(C  12,C  11,S  15)          110.6731         0.438927   
     61. A(C  10,C  11,S  15)          120.9996         0.425789   
     62. A(C  10,C  11,C  12)          128.3273         0.430550   
     63. A(C  11,C  12,C  13)          113.0900         0.435539   
     64. A(C  11,C  12,H  24)          122.5009         0.359983   
     65. A(C  13,C  12,H  24)          124.4092         0.353619   
     66. A(C  12,C  13,C  14)          112.7364         0.439551   
     67. A(C  14,C  13,H  25)          123.4953         0.363104   
     68. A(C  12,C  13,H  25)          123.7683         0.353603   
     69. A(S  15,C  14,H  26)          119.2536         0.363375   
     70. A(C  13,C  14,H  26)          128.3516         0.363863   
     71. A(C  13,C  14,S  15)          112.3948         0.451493   
     72. A(C  11,S  15,C  14)           91.1058         0.442350   
     73. A(C   7,S  16,C  10)           90.9714         0.435460   
     74. A(C   1,S  17,C   4)           87.5915         0.418094   
     75. D(C   2,C   1,C   0,H  20)    122.0347         0.014522   
     76. D(S  17,C   1,C   0,H  18)   -178.7265         0.014522   
     77. D(S  17,C   1,C   0,H  19)     60.8127         0.014522   
     78. D(C   2,C   1,C   0,H  18)      1.4483         0.014522   
     79. D(S  17,C   1,C   0,H  20)    -58.1401         0.014522   
     80. D(C   2,C   1,C   0,H  19)   -119.0125         0.014522   
     81. D(N   3,C   2,C   1,S  17)     -0.0721         0.030005   
     82. D(H  21,C   2,C   1,S  17)    179.9598         0.030005   
     83. D(H  21,C   2,C   1,C   0)     -0.1984         0.030005   
     84. D(N   3,C   2,C   1,C   0)    179.7697         0.030005   
     85. D(C   4,N   3,C   2,H  21)   -179.9482         0.035595   
     86. D(C   4,N   3,C   2,C   1)      0.0817         0.035595   
     87. D(S  17,C   4,N   3,C   2)     -0.0518         0.048463   
     88. D(N   5,C   4,N   3,C   2)   -179.8732         0.048463   
     89. D(N   6,N   5,C   4,N   3)   -179.4409         0.041138   
     90. D(N   6,N   5,C   4,S  17)      0.7566         0.041138   
     91. D(C   7,N   6,N   5,C   4)   -179.4365         0.040845   
     92. D(S  16,C   7,N   6,N   5)   -179.1778         0.035310   
     93. D(C   8,C   7,N   6,N   5)      1.2188         0.035310   
     94. D(H  22,C   8,C   7,S  16)   -179.9138         0.026615   
     95. D(H  22,C   8,C   7,N   6)     -0.2927         0.026615   
     96. D(C   9,C   8,C   7,S  16)      0.0131         0.026615   
     97. D(C   9,C   8,C   7,N   6)    179.6342         0.026615   
     98. D(H  23,C   9,C   8,H  22)     -0.0571         0.028328   
     99. D(H  23,C   9,C   8,C   7)   -179.9803         0.028328   
    100. D(C  10,C   9,C   8,H  22)    179.9846         0.028328   
    101. D(C  10,C   9,C   8,C   7)      0.0614         0.028328   
    102. D(S  16,C  10,C   9,H  23)    179.9324         0.027595   
    103. D(S  16,C  10,C   9,C   8)     -0.1082         0.027595   
    104. D(C  11,C  10,C   9,H  23)     -0.1000         0.027595   
    105. D(C  11,C  10,C   9,C   8)    179.8594         0.027595   
    106. D(S  15,C  11,C  10,S  16)   -179.7202         0.021243   
    107. D(S  15,C  11,C  10,C   9)      0.3152         0.021243   
    108. D(C  12,C  11,C  10,S  16)      0.3067         0.021243   
    109. D(C  12,C  11,C  10,C   9)   -179.6579         0.021243   
    110. D(H  24,C  12,C  11,S  15)   -179.9906         0.030356   
    111. D(H  24,C  12,C  11,C  10)     -0.0152         0.030356   
    112. D(C  13,C  12,C  11,S  15)     -0.0125         0.030356   
    113. D(C  13,C  12,C  11,C  10)    179.9629         0.030356   
    114. D(H  25,C  13,C  12,H  24)     -0.0073         0.024285   
    115. D(H  25,C  13,C  12,C  11)   -179.9849         0.024285   
    116. D(C  14,C  13,C  12,H  24)    179.9890         0.024285   
    117. D(C  14,C  13,C  12,C  11)      0.0113         0.024285   
    118. D(H  26,C  14,C  13,H  25)     -0.0233         0.033874   
    119. D(H  26,C  14,C  13,C  12)    179.9804         0.033874   
    120. D(S  15,C  14,C  13,H  25)    179.9915         0.033874   
    121. D(S  15,C  14,C  13,C  12)     -0.0048         0.033874   
    122. D(C  11,S  15,C  14,H  26)   -179.9887         0.005367   
    123. D(C  11,S  15,C  14,C  13)     -0.0020         0.005367   
    124. D(C  14,S  15,C  11,C  12)      0.0082         0.004603   
    125. D(C  14,S  15,C  11,C  10)   -179.9692         0.004603   
    126. D(C   7,S  16,C  10,C  11)   -179.8737         0.004844   
    127. D(C   7,S  16,C  10,C   9)      0.0961         0.004844   
    128. D(C  10,S  16,C   7,C   8)     -0.0623         0.004489   
    129. D(C  10,S  16,C   7,N   6)   -179.7468         0.004489   
    130. D(C   1,S  17,C   4,N   5)    179.8338         0.003156   
    131. D(C   1,S  17,C   4,N   3)      0.0100         0.003156   
    132. D(C   4,S  17,C   1,C   2)      0.0326         0.005271   
    133. D(C   4,S  17,C   1,C   0)   -179.8192         0.005271   
    -----------------------------------------------------------------

Number of atoms                         .... 27
Number of degrees of freedom            .... 133

         *************************************************************
         *                GEOMETRY OPTIMIZATION CYCLE   1            *
         *************************************************************
---------------------------------
CARTESIAN COORDINATES (ANGSTROEM)
---------------------------------
  C     -6.404600    1.203100    0.642100
  C     -5.249700    0.467400    0.072200
  C     -5.283900   -0.606000   -0.789200
  N     -4.107500   -1.101700   -1.172400
  C     -3.101800   -0.472600   -0.653300
  N     -1.841600   -0.771600   -0.880300
  N     -0.940700   -0.064000   -0.284700
  C      0.336000   -0.364300   -0.527600
  C      0.929700   -1.318700   -1.348800
  C      2.312700   -1.282900   -1.308800
  C      2.817800   -0.307900   -0.460800
  C      4.184500   -0.019400   -0.198300
  C      4.708600    0.935600    0.641100
  C      6.112300    0.942600    0.658700
  C      6.653500    0.000200   -0.161300
  S      5.458200   -0.920800   -0.976600
  S      1.544700    0.587900    0.303000
  S     -3.625900    0.894800    0.437500
  H     -7.336800    0.758100    0.302100
  H     -6.378200    2.248900    0.336300
  H     -6.373800    1.177100    1.731000
  H     -6.185000   -1.059100   -1.164300
  H      0.337900   -1.994900   -1.938800
  H      2.954600   -1.938300   -1.871600
  H      4.090500    1.600000    1.217500
  H      6.699100    1.618200    1.254600
  H      7.689100   -0.211600   -0.338500

----------------------------
CARTESIAN COORDINATES (A.U.)
----------------------------
  NO LB      ZA    FRAG     MASS         X           Y           Z
   0 C     6.0000    0    12.011  -12.102940    2.273530    1.213393
   1 C     6.0000    0    12.011   -9.920495    0.883258    0.136438
   2 C     6.0000    0    12.011   -9.985124   -1.145174   -1.491372
   3 N     7.0000    0    14.007   -7.762050   -2.081911   -2.215515
   4 C     6.0000    0    12.011   -5.861553   -0.893085   -1.234558
   5 N     7.0000    0    14.007   -3.480120   -1.458113   -1.663526
   6 N     7.0000    0    14.007   -1.777665   -0.120942   -0.538005
   7 C     6.0000    0    12.011    0.634948   -0.688427   -0.997020
   8 C     6.0000    0    12.011    1.756878   -2.491982   -2.548863
   9 C     6.0000    0    12.011    4.370370   -2.424330   -2.473274
  10 C     6.0000    0    12.011    5.324870   -0.581847   -0.870786
  11 C     6.0000    0    12.011    7.907559   -0.036661   -0.374733
  12 C     6.0000    0    12.011    8.897964    1.768028    1.211503
  13 C     6.0000    0    12.011   11.550573    1.781256    1.244763
  14 C     6.0000    0    12.011   12.573293    0.000378   -0.304813
  15 S    16.0000    0    32.060   10.314503   -1.740060   -1.845507
  16 S    16.0000    0    32.060    2.919060    1.110970    0.572587
  17 S    16.0000    0    32.060   -6.851958    1.690927    0.826755
  18 H     1.0000    0     1.008  -13.864543    1.432601    0.570886
  19 H     1.0000    0     1.008  -12.053051    4.249805    0.635515
  20 H     1.0000    0     1.008  -12.044736    2.224397    3.271116
  21 H     1.0000    0     1.008  -11.687956   -2.001409   -2.200208
  22 H     1.0000    0     1.008    0.638538   -3.769815   -3.663801
  23 H     1.0000    0     1.008    5.583385   -3.662856   -3.536811
  24 H     1.0000    0     1.008    7.729925    3.023562    2.300742
  25 H     1.0000    0     1.008   12.659464    3.057955    2.370850
  26 H     1.0000    0     1.008   14.530293   -0.399866   -0.639672

--------------------------------
INTERNAL COORDINATES (ANGSTROEM)
--------------------------------
 C      0   0   0     0.000000000000     0.00000000     0.00000000
 C      1   0   0     1.483183909702     0.00000000     0.00000000
 C      2   1   0     1.376723341852   127.43156027     0.00000000
 N      3   2   1     1.332845711251   116.61117704   179.76970621
 C      4   3   2     1.294860652734   112.92782957     0.08171976
 N      5   4   3     1.314927389630   124.37988595   180.12675332
 N      6   5   4     1.291145975481   117.67518377   180.55911071
 C      7   6   5     1.333845339610   117.41740699   180.56349239
 C      8   7   6     1.392023164319   132.06849354     1.21877910
 C      9   8   7     1.384041415565   113.04142654   179.63420699
 C     10   9   8     1.387391440798   113.55524179     0.06135814
 C     11  10   9     1.421269640146   127.27388723   179.85940227
 C     12  11  10     1.375244767305   128.32732177   180.34206345
 C     13  12  11     1.403827785022   113.08996284   179.96288894
 C     14  13  12     1.361401924488   112.73640443     0.00000000
 S     15  14  13     1.715137656283   112.39479476     0.00000000
 S     11  10   9     1.733964154762   111.40729683   359.89184312
 S      2   1   3     1.718383336162   122.05595362   179.82520765
 H      1   2   3     1.087484179195   110.14324702     1.44825620
 H      1   2   3     1.089912033148   110.44347942   240.98748219
 H      1   2   3     1.089645745185   110.49542295   122.03466782
 H      3   2   1     1.076095177017   124.55463072   359.80158249
 H      9   8   7     1.074976129968   121.35009188   359.70727563
 H     10   9   8     1.076256758399   124.40963219   180.01967055
 H     13  12  11     1.075040431798   122.50085991     0.00000000
 H     14  13  12     1.075112277858   123.76832564   180.01509630
 H     15  14  13     1.071786564573   128.35162750   179.98044240

---------------------------
INTERNAL COORDINATES (A.U.)
---------------------------
 C      0   0   0     0.000000000000     0.00000000     0.00000000
 C      1   0   0     2.802811395576     0.00000000     0.00000000
 C      2   1   0     2.601630078277   127.43156027     0.00000000
 N      3   2   1     2.518713373036   116.61117704   179.76970621
 C      4   3   2     2.446932015259   112.92782957     0.08171976
 N      5   4   3     2.484852652393   124.37988595   180.12675332
 N      6   5   4     2.439912292573   117.67518377   180.55911071
 C      7   6   5     2.520602396871   117.41740699   180.56349239
 C      8   7   6     2.630542552637   132.06849354     1.21877910
 C      9   8   7     2.615459233423   113.04142654   179.63420699
 C     10   9   8     2.621789863655   113.55524179     0.06135814
 C     11  10   9     2.685810382332   127.27388723   179.85940227
 C     12  11  10     2.598835977315   128.32732177   180.34206345
 C     13  12  11     2.652850052881   113.08996284   179.96288894
 C     14  13  12     2.572676795476   112.73640443     0.00000000
 S     15  14  13     3.241140452350   112.39479476     0.00000000
 S     11  10   9     3.276717378537   111.40729683   359.89184312
 S      2   1   3     3.247273898441   122.05595362   179.82520765
 H      1   2   3     2.055047273651   110.14324702     1.44825620
 H      1   2   3     2.059635252714   110.44347942   240.98748219
 H      1   2   3     2.059132041392   110.49542295   122.03466782
 H      3   2   1     2.033525178596   124.55463072   359.80158249
 H      9   8   7     2.031410486141   121.35009188   359.70727563
 H     10   9   8     2.033830523156   124.40963219   180.01967055
 H     13  12  11     2.031531998990   122.50085991     0.00000000
 H     14  13  12     2.031667768367   123.76832564   180.01509630
 H     15  14  13     2.025383081060   128.35162750   179.98044240

---------------------
BASIS SET INFORMATION
---------------------
There are 4 groups of distinct atoms

 Group   1 Type C   : 19s6p3d2f contracted to 5s4p3d2f pattern {88111/3111/111/11}
 Group   2 Type N   : 19s6p3d2f contracted to 5s4p3d2f pattern {88111/3111/111/11}
 Group   3 Type S   : 42s17p3d2f contracted to 6s5p3d2f pattern {131313111/77111/111/11}
 Group   4 Type H   : 5s2p1d contracted to 3s2p1d pattern {311/11/1}

Atom   0C    basis set group =>   1
Atom   1C    basis set group =>   1
Atom   2C    basis set group =>   1
Atom   3N    basis set group =>   2
Atom   4C    basis set group =>   1
Atom   5N    basis set group =>   2
Atom   6N    basis set group =>   2
Atom   7C    basis set group =>   1
Atom   8C    basis set group =>   1
Atom   9C    basis set group =>   1
Atom  10C    basis set group =>   1
Atom  11C    basis set group =>   1
Atom  12C    basis set group =>   1
Atom  13C    basis set group =>   1
Atom  14C    basis set group =>   1
Atom  15S    basis set group =>   3
Atom  16S    basis set group =>   3
Atom  17S    basis set group =>   3
Atom  18H    basis set group =>   4
Atom  19H    basis set group =>   4
Atom  20H    basis set group =>   4
Atom  21H    basis set group =>   4
Atom  22H    basis set group =>   4
Atom  23H    basis set group =>   4
Atom  24H    basis set group =>   4
Atom  25H    basis set group =>   4
Atom  26H    basis set group =>   4
---------------------------------
AUXILIARY/J BASIS SET INFORMATION
---------------------------------
There are 4 groups of distinct atoms

 Group   1 Type C   : 10s7p5d2f1g contracted to 10s7p5d2f1g pattern {1111111111/1111111/11111/11/1}
 Group   2 Type N   : 10s7p5d2f1g contracted to 10s7p5d2f1g pattern {1111111111/1111111/11111/11/1}
 Group   3 Type S   : 13s11p9d3f1g contracted to 13s11p9d3f1g pattern {1111111111111/11111111111/111111111/111/1}
 Group   4 Type H   : 4s3p2d1f contracted to 4s3p2d1f pattern {1111/111/11/1}

Atom   0C    basis set group =>   1
Atom   1C    basis set group =>   1
Atom   2C    basis set group =>   1
Atom   3N    basis set group =>   2
Atom   4C    basis set group =>   1
Atom   5N    basis set group =>   2
Atom   6N    basis set group =>   2
Atom   7C    basis set group =>   1
Atom   8C    basis set group =>   1
Atom   9C    basis set group =>   1
Atom  10C    basis set group =>   1
Atom  11C    basis set group =>   1
Atom  12C    basis set group =>   1
Atom  13C    basis set group =>   1
Atom  14C    basis set group =>   1
Atom  15S    basis set group =>   3
Atom  16S    basis set group =>   3
Atom  17S    basis set group =>   3
Atom  18H    basis set group =>   4
Atom  19H    basis set group =>   4
Atom  20H    basis set group =>   4
Atom  21H    basis set group =>   4
Atom  22H    basis set group =>   4
Atom  23H    basis set group =>   4
Atom  24H    basis set group =>   4
Atom  25H    basis set group =>   4
Atom  26H    basis set group =>   4
---------------------------------
AUXILIARY/C BASIS SET INFORMATION
---------------------------------
There are 4 groups of distinct atoms

 Group   1 Type C   : 9s7p6d4f2g contracted to 9s7p6d4f2g pattern {111111111/1111111/111111/1111/11}
 Group   2 Type N   : 9s7p6d4f2g contracted to 9s7p6d4f2g pattern {111111111/1111111/111111/1111/11}
 Group   3 Type S   : 11s9p8d6f3g contracted to 11s9p8d6f3g pattern {11111111111/111111111/11111111/111111/111}
 Group   4 Type H   : 4s3p2d1f contracted to 4s3p2d1f pattern {1111/111/11/1}

Atom   0C    basis set group =>   1
Atom   1C    basis set group =>   1
Atom   2C    basis set group =>   1
Atom   3N    basis set group =>   2
Atom   4C    basis set group =>   1
Atom   5N    basis set group =>   2
Atom   6N    basis set group =>   2
Atom   7C    basis set group =>   1
Atom   8C    basis set group =>   1
Atom   9C    basis set group =>   1
Atom  10C    basis set group =>   1
Atom  11C    basis set group =>   1
Atom  12C    basis set group =>   1
Atom  13C    basis set group =>   1
Atom  14C    basis set group =>   1
Atom  15S    basis set group =>   3
Atom  16S    basis set group =>   3
Atom  17S    basis set group =>   3
Atom  18H    basis set group =>   4
Atom  19H    basis set group =>   4
Atom  20H    basis set group =>   4
Atom  21H    basis set group =>   4
Atom  22H    basis set group =>   4
Atom  23H    basis set group =>   4
Atom  24H    basis set group =>   4
Atom  25H    basis set group =>   4
Atom  26H    basis set group =>   4


           ************************************************************
           *        Program running with 4 parallel MPI-processes     *
           *              working on a common directory               *
           ************************************************************
------------------------------------------------------------------------------
                           ORCA GTO INTEGRAL CALCULATION
                           -- RI-GTO INTEGRALS CHOSEN --
------------------------------------------------------------------------------
------------------------------------------------------------------------------
                   ___                                                        
                  /   \      - P O W E R E D   B Y -                         
                 /     \                                                     
                 |  |  |   _    _      __       _____    __    __             
                 |  |  |  | |  | |    /  \     |  _  \  |  |  /  |          
                  \  \/   | |  | |   /    \    | | | |  |  | /  /          
                 / \  \   | |__| |  /  /\  \   | |_| |  |  |/  /          
                |  |  |   |  __  | /  /__\  \  |    /   |      \           
                |  |  |   | |  | | |   __   |  |    \   |  |\   \          
                \     /   | |  | | |  |  |  |  | |\  \  |  | \   \       
                 \___/    |_|  |_| |__|  |__|  |_| \__\ |__|  \__/        
                                                                              
                      - O R C A' S   B I G   F R I E N D -                    
                                      &                                       
                       - I N T E G R A L  F E E D E R -                       
                                                                              
 v1 FN, 2020, v2 2021                                                         
------------------------------------------------------------------------------


Reading SHARK input file optpbed3-b2plyp-train-15.SHARKINP.tmp ... ok
----------------------
SHARK INTEGRAL PACKAGE
----------------------

Number of atoms                             ...     27
Number of basis functions                   ...   1131
Number of shells                            ...    447
Maximum angular momentum                    ...      3
Integral batch strategy                     ... SHARK/LIBINT Hybrid
RI-J (if used) integral strategy            ... SPLIT-RIJ (Revised 2003 algorithm where possible)
Printlevel                                  ...      1
Contraction scheme used                     ... PARTIAL GENERAL contraction
Coulomb Range Separation                    ... NOT USED
Exchange Range Separation                   ... NOT USED
Finite Nucleus Model                        ... NOT USED
Auxiliary Coulomb fitting basis             ... AVAILABLE
   # of basis functions in Aux-J            ...   1818
   # of shells in Aux-J                     ...    576
   Maximum angular momentum in Aux-J        ...      4
Auxiliary J/K fitting basis                 ... NOT available
Auxiliary Correlation fitting basis         ... AVAILABLE
   # of basis functions in Aux-C            ...   2301
   # of shells in Aux-C                     ...    621
   Maximum angular momentum in Aux-C        ...      4
Auxiliary 'external' fitting basis          ... NOT available
Integral threshold                          ...     2.500000e-11
Primitive cut-off                           ...     2.500000e-12
Primitive pair pre-selection threshold      ...     2.500000e-12

Calculating pre-screening integrals         ... done (  0.2 sec) Dimension = 447
Calculating pre-screening integrals (ORCA)  ... done (  0.9 sec) Dimension = 312
Organizing shell pair data                  ... done (  1.3 sec)
Shell pair information
Total number of shell pairs                 ...    100128
Shell pairs after pre-screening             ...     56840
Total number of primitive shell pairs       ...    122832
Primitive shell pairs kept                  ...     64064
          la=0 lb=0:  12415 shell pairs
          la=1 lb=0:  15086 shell pairs
          la=1 lb=1:   4113 shell pairs
          la=2 lb=0:   9107 shell pairs
          la=2 lb=1:   4789 shell pairs
          la=2 lb=2:   1452 shell pairs
          la=3 lb=0:   5062 shell pairs
          la=3 lb=1:   2712 shell pairs
          la=3 lb=2:   1627 shell pairs
          la=3 lb=3:    477 shell pairs

Calculating one electron integrals          ... done (  0.2 sec)
Calculating RI/J V-Matrix + Cholesky decomp.... done (  0.4 sec)
Calculating RI/C V-Matrix + Cholesky decomp.... done (  0.5 sec)
Calculating Nuclear repulsion               ... done (  0.0 sec) ENN=   1485.586984744147 Eh

SHARK setup successfully completed in   5.1 seconds

Maximum memory used throughout the entire GTOINT-calculation: 92.0 MB


           ************************************************************
           *        Program running with 4 parallel MPI-processes     *
           *              working on a common directory               *
           ************************************************************
-------------------------------------------------------------------------------
                                 ORCA SCF
-------------------------------------------------------------------------------

------------
SCF SETTINGS
------------
Hamiltonian:
 Density Functional     Method          .... DFT(GTOs)
 Exchange Functional    Exchange        .... PBE
   PBE kappa parameter   XKappa         ....  0.804000
   PBE mue parameter    XMuePBE         ....  0.219520
 Correlation Functional Correlation     .... PBE
   PBE beta parameter  CBetaPBE         ....  0.066725
 LDA part of GGA corr.  LDAOpt          .... PW91-LDA
 Gradients option       PostSCFGGA      .... off
 Hybrid DFT is turned on
   Fraction HF Exchange ScalHFX         ....  0.250000
   Scaling of DF-GGA-X  ScalDFX         ....  0.750000
   Scaling of DF-GGA-C  ScalDFC         ....  1.000000
   Scaling of DF-LDA-C  ScalLDAC        ....  1.000000
   Perturbative correction              ....  0.000000
   Density functional embedding theory  .... OFF
   NL short-range parameter             ....  6.900000
 RI-approximation to the Coulomb term is turned on
   Number of AuxJ basis functions       .... 1818
   RIJ-COSX (HFX calculated with COS-X)).... on


General Settings:
 Integral files         IntName         .... optpbed3-b2plyp-train-15
 Hartree-Fock type      HFTyp           .... RHF
 Total Charge           Charge          ....    0
 Multiplicity           Mult            ....    1
 Number of Electrons    NEL             ....  150
 Basis Dimension        Dim             ....  966
 Nuclear Repulsion      ENuc            ....   1485.5869847441 Eh

Convergence Acceleration:
 DIIS                   CNVDIIS         .... on
   Start iteration      DIISMaxIt       ....    12
   Startup error        DIISStart       ....  0.200000
   # of expansion vecs  DIISMaxEq       ....     5
   Bias factor          DIISBfac        ....   1.050
   Max. coefficient     DIISMaxC        ....  10.000
 Trust-Rad. Augm. Hess. CNVTRAH         .... auto
   Auto Start mean grad. ratio tolernc. ....  1.125000
   Auto Start start iteration           ....    20
   Auto Start num. interpolation iter.  ....    10
   Max. Number of Micro iterations      ....    16
   Max. Number of Macro iterations      .... Maxiter - #DIIS iter
   Number of Davidson start vectors     ....     2
   Converg. threshold I  (grad. norm)   ....   1.000e-05
   Converg. threshold II (energy diff.) ....   1.000e-08
   Grad. Scal. Fac. for Micro threshold ....   0.100
   Minimum threshold for Micro iter.    ....   0.010
   NR start threshold (gradient norm)   ....   0.001
   Initial trust radius                 ....   0.400
   Minimum AH scaling param. (alpha)    ....   1.000
   Maximum AH scaling param. (alpha)    .... 1000.000
   Orbital update algorithm             .... Taylor
   White noise on init. David. guess    .... on
   Maximum white noise                  ....   0.010
   Quad. conv. algorithm                .... NR
 SOSCF                  CNVSOSCF        .... on
   Start iteration      SOSCFMaxIt      ....   150
   Startup grad/error   SOSCFStart      ....  0.003300
 Level Shifting         CNVShift        .... on
   Level shift para.    LevelShift      ....    0.2500
   Turn off err/grad.   ShiftErr        ....    0.0010
 Zerner damping         CNVZerner       .... off
 Static damping         CNVDamp         .... on
   Fraction old density DampFac         ....    0.7000
   Max. Damping (<1)    DampMax         ....    0.9800
   Min. Damping (>=0)   DampMin         ....    0.0000
   Turn off err/grad.   DampErr         ....    0.1000
 Fernandez-Rico         CNVRico         .... off

SCF Procedure:
 Maximum # iterations   MaxIter         ....   125
 SCF integral mode      SCFMode         .... Direct
   Integral package                     .... SHARK and LIBINT hybrid scheme
 Reset frequency        DirectResetFreq ....    20
 Integral Threshold     Thresh          ....  2.500e-11 Eh
 Primitive CutOff       TCut            ....  2.500e-12 Eh

Convergence Tolerance:
 Convergence Check Mode ConvCheckMode   .... Total+1el-Energy
 Convergence forced     ConvForced      .... 0
 Energy Change          TolE            ....  1.000e-08 Eh
 1-El. energy change                    ....  1.000e-05 Eh
 Orbital Gradient       TolG            ....  1.000e-05
 Orbital Rotation angle TolX            ....  1.000e-05
 DIIS Error             TolErr          ....  5.000e-07


Diagonalization of the overlap matrix:
Smallest eigenvalue                        ... 1.484e-06
Time for diagonalization                   ...    0.329 sec
Threshold for overlap eigenvalues          ... 1.000e-08
Number of eigenvalues below threshold      ... 0
Time for construction of square roots      ...    0.189 sec
Total time needed                          ...    0.524 sec

Time for model grid setup =    0.734 sec

------------------------------
INITIAL GUESS: MODEL POTENTIAL
------------------------------
Loading Hartree-Fock densities                     ... done
Calculating cut-offs                               ... done
Initializing the effective Hamiltonian             ... done
Setting up the integral package (SHARK)            ... done
Starting the Coulomb interaction                   ... done (   2.5 sec)
Reading the grid                                   ... done
Mapping shells                                     ... done
Starting the XC term evaluation                    ... done (   1.8 sec)
  promolecular density results
     # of electrons  =    149.995041599
     EX              =   -158.427558112
     EC              =     -5.320251645
     EX+EC           =   -163.747809757
Transforming the Hamiltonian                       ... done (   0.2 sec)
Diagonalizing the Hamiltonian                      ... done (   0.4 sec)
Back transforming the eigenvectors                 ... done (   0.1 sec)
Now organizing SCF variables                       ... done
                      ------------------
                      INITIAL GUESS DONE (   5.7 sec)
                      ------------------
-------------------
DFT GRID GENERATION
-------------------

General Integration Accuracy     IntAcc      ... 4.388
Radial Grid Type                 RadialGrid  ... OptM3 with GC (2021)
Angular Grid (max. ang.)         AngularGrid ... 4 (Lebedev-302)
Angular grid pruning method      GridPruning ... 4 (adaptive)
Weight generation scheme         WeightScheme... Becke
Basis function cutoff            BFCut       ... 1.0000e-11
Integration weight cutoff        WCut        ... 1.0000e-14
Angular grids for H and He will be reduced by one unit
Partially contracted basis set               ... off
Rotationally invariant grid construction     ... off

Total number of grid points                  ...   145831
Total number of batches                      ...     2293
Average number of points per batch           ...       63
Average number of grid points per atom       ...     5401
Time for grid setup =    2.444 sec

--------------------
COSX GRID GENERATION
--------------------

GRIDX 1
-------
General Integration Accuracy     IntAcc      ... 3.816
Radial Grid Type                 RadialGrid  ... OptM3 with GC (2021)
Angular Grid (max. ang.)         AngularGrid ... 1 (Lebedev-50)
Angular grid pruning method      GridPruning ... 4 (adaptive)
Weight generation scheme         WeightScheme... Becke
Basis function cutoff            BFCut       ... 1.0000e-11
Integration weight cutoff        WCut        ... 1.0000e-14
Angular grids for H and He will be reduced by one unit
Partially contracted basis set               ... on
Rotationally invariant grid construction     ... off

Total number of grid points                  ...    18267
Total number of batches                      ...      301
Average number of points per batch           ...       60
Average number of grid points per atom       ...      677
UseSFitting                                  ... on

GRIDX 2
-------
General Integration Accuracy     IntAcc      ... 4.020
Radial Grid Type                 RadialGrid  ... OptM3 with GC (2021)
Angular Grid (max. ang.)         AngularGrid ... 2 (Lebedev-110)
Angular grid pruning method      GridPruning ... 4 (adaptive)
Weight generation scheme         WeightScheme... Becke
Basis function cutoff            BFCut       ... 1.0000e-11
Integration weight cutoff        WCut        ... 1.0000e-14
Angular grids for H and He will be reduced by one unit
Partially contracted basis set               ... on
Rotationally invariant grid construction     ... off

Total number of grid points                  ...    44672
Total number of batches                      ...      713
Average number of points per batch           ...       62
Average number of grid points per atom       ...     1655
UseSFitting                                  ... on

GRIDX 3
-------
General Integration Accuracy     IntAcc      ... 4.338
Radial Grid Type                 RadialGrid  ... OptM3 with GC (2021)
Angular Grid (max. ang.)         AngularGrid ... 3 (Lebedev-194)
Angular grid pruning method      GridPruning ... 4 (adaptive)
Weight generation scheme         WeightScheme... Becke
Basis function cutoff            BFCut       ... 1.0000e-11
Integration weight cutoff        WCut        ... 1.0000e-14
Angular grids for H and He will be reduced by one unit
Partially contracted basis set               ... on
Rotationally invariant grid construction     ... off

Total number of grid points                  ...    98478
Total number of batches                      ...     1551
Average number of points per batch           ...       63
Average number of grid points per atom       ...     3647
UseSFitting                                  ... on

Time for X-Grid setup             =    6.073 sec


--------------------
CPCM SOLVATION MODEL
--------------------
CPCM parameters:
  Epsilon                                         ...      46.8260
  Refrac                                          ...       1.4170
  Rsolv                                           ...       1.3000
  Surface type                                    ... GAUSSIAN VDW
  Epsilon function type                           ...         CPCM
Solvent:                                     ... DIMETHYLSULFOXIDE
SMD-CDS solvent descriptors:
  Soln                                       ...    1.4170
  Soln25                                     ...    1.4773
  Sola                                       ...    0.0000
  Solb                                       ...    0.8800
  Solg                                       ...   61.7800
  Solc                                       ...    0.0000
  Solh                                       ...    0.0000
Radii:
 Radius for C  used is    3.4960 Bohr (=   1.8500 Ang.)
 Radius for N  used is    3.5716 Bohr (=   1.8900 Ang.)
 Radius for S  used is    4.7054 Bohr (=   2.4900 Ang.)
 Radius for H  used is    2.2677 Bohr (=   1.2000 Ang.)
Calculating surface                               ...        done! (  0.0s)
GEPOL surface points                              ...         1465
GEPOL Volume                                      ...    2155.4536
GEPOL Surface-area                                ...    1112.2083
Calculating surface distance matrix               ...        done! (  0.0s)
Performing Cholesky decomposition & store         ...        done! (  0.2s)
Overall time for CPCM initialization              ...                 0.2s
 re-compute Schwartz prescreening matrix in partically contracted basis (1) ...done (   0.226 sec)
--------------
SCF ITERATIONS
--------------
ITER       Energy         Delta-E        Max-DP      RMS-DP      [F,P]     Damp
               ***  Starting incremental Fock matrix formation  ***
  0  -1820.1417140602   0.000000000000 0.12114259  0.00078492  0.2224262 0.7000
  1  -1820.3615635978  -0.219849537531 0.08399620  0.00056551  0.0990151 0.7000
                               ***Turning on DIIS***
  2  -1820.4480408886  -0.086477290810 0.16945551  0.00114149  0.0388917 0.0000
  3  -1820.5640310404  -0.115990151797 0.02581703  0.00030111  0.0547079 0.0000
  4  -1820.6054556708  -0.041424630465 0.01489012  0.00013108  0.0139868 0.0000
  5  -1820.6076463399  -0.002190669074 0.00688635  0.00004525  0.0098114 0.0000
                      *** Initiating the SOSCF procedure ***
                           *** Shutting down DIIS ***
                      *** Re-Reading the Fockian *** 
                      *** Removing any level shift *** 
ITER      Energy       Delta-E        Grad      Rot      Max-DP    RMS-DP
  6  -1820.60799292  -0.0003465842  0.000532  0.000532  0.002328  0.000021
               *** Restarting incremental Fock matrix formation ***
  7  -1820.60802248  -0.0000295560  0.000334  0.002466  0.015190  0.000171
  8  -1820.60803201  -0.0000095295  0.000269  0.001465  0.006414  0.000076
  9  -1820.60803376  -0.0000017482  0.000239  0.000558  0.005938  0.000067
 10  -1820.60803568  -0.0000019250  0.000048  0.000324  0.001921  0.000022
 11  -1820.60803577  -0.0000000831  0.000044  0.000250  0.001293  0.000016
 12  -1820.60803599  -0.0000002264  0.000012  0.000063  0.001815  0.000012
 13  -1820.60803601  -0.0000000155  0.000011  0.000039  0.001535  0.000009
 14  -1820.60803603  -0.0000000220  0.000004  0.000014  0.003700  0.000017
 15  -1820.60803601   0.0000000164  0.000005  0.000009  0.001563  0.000010
                  ***Gradient check signals convergence***
              ***Rediagonalizing the Fockian in SOSCF/NRSCF***

               *****************************************************
               *                     SUCCESS                       *
               *           SCF CONVERGED AFTER  16 CYCLES          *
               *****************************************************

Old exchange energy                            =    -40.066059329 Eh
New exchange energy                            =    -40.065954041 Eh
Exchange energy change after final integration =      0.000105288 Eh
Total energy after final integration           =  -1820.607930735 Eh
Final COS-X integration done in                =   110.694 sec

SMD CDS free energy correction energy :                 0.54159     Kcal/mol
Total Energy after SMD CDS correction =             -1820.607067659 Eh

----------------
TOTAL SCF ENERGY
----------------

Total Energy       :        -1820.60706766 Eh          -49541.23694 eV

Components:
Nuclear Repulsion  :         1485.58698474 Eh           40424.87702 eV
Electronic Energy  :        -3306.19405240 Eh          -89966.11395 eV
One Electron Energy:        -5452.35085179 Eh         -148366.00946 eV
Two Electron Energy:         2146.15679939 Eh           58399.89550 eV
Max COSX asymmetry :            0.00002151 Eh               0.00059 eV
CPCM Dielectric    :           -0.02270140 Eh              -0.61774 eV
SMD CDS (Gcds)     :            0.00086308 Eh               0.02349 eV

Virial components:
Potential Energy   :        -3634.68247792 Eh          -98904.73844 eV
Kinetic Energy     :         1814.07541026 Eh           49363.50151 eV
Virial Ratio       :            2.00360054


DFT components:
N(Alpha)           :       75.000006998192 electrons
N(Beta)            :       75.000006998192 electrons
N(Total)           :      150.000013996385 electrons
E(X)               :     -119.820707241052 Eh       
E(C)               :       -5.326001658711 Eh       
E(XC)              :     -125.146708899763 Eh       
DFET-embed. en.    :        0.000000000000 Eh       
CPCM Solvation Model Properties:
Surface-charge          :           -0.04253205
Charge-correction       :            0.00001399 Eh               0.00038 eV
Free-energy (cav+disp)  :            0.00086308 Eh               0.02349 eV

---------------
SCF CONVERGENCE
---------------

  Last Energy change         ...   -9.6629e-09  Tolerance :   1.0000e-08
  Last MAX-Density change    ...    5.5511e-15  Tolerance :   1.0000e-07
  Last RMS-Density change    ...    1.7867e-17  Tolerance :   5.0000e-09
  Last Orbital Gradient      ...    1.4839e-06  Tolerance :   1.0000e-05
  Last Orbital Rotation      ...    8.5450e-06  Tolerance :   1.0000e-05

             **** THE GBW FILE WAS UPDATED (optpbed3-b2plyp-train-15.gbw) ****
             **** DENSITY optpbed3-b2plyp-train-15.scfp WAS UPDATED ****
             **** ENERGY FILE WAS UPDATED (optpbed3-b2plyp-train-15.en.tmp) ****
             **** THE GBW FILE WAS UPDATED (optpbed3-b2plyp-train-15.gbw) ****
             **** DENSITY optpbed3-b2plyp-train-15.scfp WAS UPDATED ****
----------------
ORBITAL ENERGIES
----------------

  NO   OCC          E(Eh)            E(eV) 
   0   2.0000     -89.096965     -2424.4517 
   1   2.0000     -89.092145     -2424.3205 
   2   2.0000     -89.086101     -2424.1561 
   3   2.0000     -14.449642      -393.1947 
   4   2.0000     -14.437889      -392.8749 
   5   2.0000     -14.397629      -391.7794 
   6   2.0000     -10.315698      -280.7044 
   7   2.0000     -10.296870      -280.1921 
   8   2.0000     -10.294495      -280.1275 
   9   2.0000     -10.279417      -279.7171 
  10   2.0000     -10.276555      -279.6393 
  11   2.0000     -10.263509      -279.2843 
  12   2.0000     -10.255295      -279.0608 
  13   2.0000     -10.249853      -278.9127 
  14   2.0000     -10.247481      -278.8481 
  15   2.0000     -10.241794      -278.6934 
  16   2.0000     -10.236819      -278.5580 
  17   2.0000     -10.224259      -278.2162 
  18   2.0000      -8.054158      -219.1648 
  19   2.0000      -8.049149      -219.0285 
  20   2.0000      -8.042606      -218.8504 
  21   2.0000      -5.990849      -163.0193 
  22   2.0000      -5.987521      -162.9287 
  23   2.0000      -5.985866      -162.8837 
  24   2.0000      -5.984803      -162.8548 
  25   2.0000      -5.982305      -162.7868 
  26   2.0000      -5.980087      -162.7264 
  27   2.0000      -5.978964      -162.6959 
  28   2.0000      -5.975982      -162.6147 
  29   2.0000      -5.973668      -162.5518 
  30   2.0000      -1.080694       -29.4072 
  31   2.0000      -1.007006       -27.4020 
  32   2.0000      -0.942162       -25.6375 
  33   2.0000      -0.918088       -24.9825 
  34   2.0000      -0.863675       -23.5018 
  35   2.0000      -0.841966       -22.9111 
  36   2.0000      -0.796841       -21.6831 
  37   2.0000      -0.782123       -21.2827 
  38   2.0000      -0.767748       -20.8915 
  39   2.0000      -0.754693       -20.5362 
  40   2.0000      -0.725813       -19.7504 
  41   2.0000      -0.696259       -18.9462 
  42   2.0000      -0.627451       -17.0738 
  43   2.0000      -0.627086       -17.0639 
  44   2.0000      -0.588246       -16.0070 
  45   2.0000      -0.581450       -15.8221 
  46   2.0000      -0.560570       -15.2539 
  47   2.0000      -0.550930       -14.9916 
  48   2.0000      -0.540963       -14.7203 
  49   2.0000      -0.508375       -13.8336 
  50   2.0000      -0.485224       -13.2036 
  51   2.0000      -0.482612       -13.1325 
  52   2.0000      -0.476805       -12.9745 
  53   2.0000      -0.452431       -12.3113 
  54   2.0000      -0.450265       -12.2523 
  55   2.0000      -0.434236       -11.8162 
  56   2.0000      -0.433252       -11.7894 
  57   2.0000      -0.423147       -11.5144 
  58   2.0000      -0.419728       -11.4214 
  59   2.0000      -0.419358       -11.4113 
  60   2.0000      -0.413155       -11.2425 
  61   2.0000      -0.397997       -10.8300 
  62   2.0000      -0.388446       -10.5701 
  63   2.0000      -0.383407       -10.4330 
  64   2.0000      -0.375372       -10.2144 
  65   2.0000      -0.367695       -10.0055 
  66   2.0000      -0.361384        -9.8338 
  67   2.0000      -0.312672        -8.5082 
  68   2.0000      -0.304124        -8.2756 
  69   2.0000      -0.301535        -8.2052 
  70   2.0000      -0.289859        -7.8875 
  71   2.0000      -0.277975        -7.5641 
  72   2.0000      -0.264719        -7.2034 
  73   2.0000      -0.260632        -7.0921 
  74   2.0000      -0.210788        -5.7358 
  75   0.0000      -0.117719        -3.2033 
  76   0.0000      -0.049682        -1.3519 
  77   0.0000      -0.006988        -0.1902 
  78   0.0000       0.000714         0.0194 
  79   0.0000       0.005464         0.1487 
  80   0.0000       0.006615         0.1800 
  81   0.0000       0.013707         0.3730 
  82   0.0000       0.018911         0.5146 
  83   0.0000       0.019974         0.5435 
  84   0.0000       0.021948         0.5972 
  85   0.0000       0.025859         0.7037 
  86   0.0000       0.029519         0.8033 
  87   0.0000       0.035331         0.9614 
  88   0.0000       0.035548         0.9673 
  89   0.0000       0.040613         1.1051 
  90   0.0000       0.041484         1.1288 
  91   0.0000       0.042955         1.1689 
  92   0.0000       0.046639         1.2691 
  93   0.0000       0.047251         1.2858 
  94   0.0000       0.056550         1.5388 
  95   0.0000       0.057048         1.5523 
  96   0.0000       0.059544         1.6203 
  97   0.0000       0.063011         1.7146 
  98   0.0000       0.063499         1.7279 
  99   0.0000       0.064751         1.7620 
 100   0.0000       0.068868         1.8740 
 101   0.0000       0.072858         1.9826 
 102   0.0000       0.077431         2.1070 
 103   0.0000       0.082904         2.2559 
 104   0.0000       0.083776         2.2797 
 105   0.0000       0.089249         2.4286 
 106   0.0000       0.092997         2.5306 
 107   0.0000       0.095346         2.5945 
 108   0.0000       0.099187         2.6990 
 109   0.0000       0.102810         2.7976 
 110   0.0000       0.106183         2.8894 
 111   0.0000       0.107109         2.9146 
 112   0.0000       0.113096         3.0775 
 113   0.0000       0.115154         3.1335 
 114   0.0000       0.116447         3.1687 
 115   0.0000       0.118340         3.2202 
 116   0.0000       0.118658         3.2288 
 117   0.0000       0.124559         3.3894 
 118   0.0000       0.130064         3.5392 
 119   0.0000       0.133428         3.6308 
 120   0.0000       0.133885         3.6432 
 121   0.0000       0.135079         3.6757 
 122   0.0000       0.137117         3.7311 
 123   0.0000       0.140652         3.8273 
 124   0.0000       0.144969         3.9448 
 125   0.0000       0.146180         3.9778 
 126   0.0000       0.149925         4.0797 
 127   0.0000       0.152023         4.1368 
 128   0.0000       0.153961         4.1895 
 129   0.0000       0.154925         4.2157 
 130   0.0000       0.156402         4.2559 
 131   0.0000       0.157447         4.2844 
 132   0.0000       0.164236         4.4691 
 133   0.0000       0.166753         4.5376 
 134   0.0000       0.168210         4.5772 
 135   0.0000       0.169578         4.6145 
 136   0.0000       0.170025         4.6266 
 137   0.0000       0.175180         4.7669 
 138   0.0000       0.176138         4.7930 
 139   0.0000       0.177766         4.8372 
 140   0.0000       0.186343         5.0706 
 141   0.0000       0.186663         5.0794 
 142   0.0000       0.189799         5.1647 
 143   0.0000       0.192623         5.2415 
 144   0.0000       0.196847         5.3565 
 145   0.0000       0.198388         5.3984 
 146   0.0000       0.199637         5.4324 
 147   0.0000       0.207750         5.6532 
 148   0.0000       0.208001         5.6600 
 149   0.0000       0.209760         5.7079 
 150   0.0000       0.212312         5.7773 
 151   0.0000       0.220101         5.9893 
 152   0.0000       0.222350         6.0505 
 153   0.0000       0.224003         6.0954 
 154   0.0000       0.225358         6.1323 
 155   0.0000       0.231807         6.3078 
 156   0.0000       0.233056         6.3418 
 157   0.0000       0.234240         6.3740 
 158   0.0000       0.244858         6.6629 
 159   0.0000       0.246638         6.7114 
 160   0.0000       0.248275         6.7559 
 161   0.0000       0.251176         6.8348 
 162   0.0000       0.254319         6.9204 
 163   0.0000       0.257532         7.0078 
 164   0.0000       0.261545         7.1170 
 165   0.0000       0.263027         7.1573 
 166   0.0000       0.264276         7.1913 
 167   0.0000       0.268621         7.3095 
 168   0.0000       0.269410         7.3310 
 169   0.0000       0.271886         7.3984 
 170   0.0000       0.278744         7.5850 
 171   0.0000       0.279194         7.5973 
 172   0.0000       0.280221         7.6252 
 173   0.0000       0.283186         7.7059 
 174   0.0000       0.287057         7.8112 
 175   0.0000       0.290568         7.9068 
 176   0.0000       0.293975         7.9995 
 177   0.0000       0.295658         8.0453 
 178   0.0000       0.299391         8.1468 
 179   0.0000       0.307867         8.3775 
 180   0.0000       0.311294         8.4707 
 181   0.0000       0.316337         8.6080 
 182   0.0000       0.318987         8.6801 
 183   0.0000       0.319500         8.6940 
 184   0.0000       0.323381         8.7997 
 185   0.0000       0.324143         8.8204 
 186   0.0000       0.332911         9.0590 
 187   0.0000       0.338654         9.2153 
 188   0.0000       0.340526         9.2662 
 189   0.0000       0.345203         9.3935 
 190   0.0000       0.346845         9.4381 
 191   0.0000       0.347863         9.4658 
 192   0.0000       0.352162         9.5828 
 193   0.0000       0.356360         9.6971 
 194   0.0000       0.358642         9.7591 
 195   0.0000       0.359858         9.7922 
 196   0.0000       0.364366         9.9149 
 197   0.0000       0.366855         9.9826 
 198   0.0000       0.368283        10.0215 
 199   0.0000       0.369685        10.0596 
 200   0.0000       0.373448        10.1620 
 201   0.0000       0.378381        10.2963 
 202   0.0000       0.379256        10.3201 
 203   0.0000       0.384403        10.4602 
 204   0.0000       0.387895        10.5552 
 205   0.0000       0.388823        10.5804 
 206   0.0000       0.393176        10.6989 
 207   0.0000       0.397104        10.8058 
 208   0.0000       0.399095        10.8599 
 209   0.0000       0.403032        10.9670 
 210   0.0000       0.407369        11.0851 
 211   0.0000       0.410682        11.1752 
 212   0.0000       0.414694        11.2844 
 213   0.0000       0.415447        11.3049 
 214   0.0000       0.416793        11.3415 
 215   0.0000       0.420706        11.4480 
 216   0.0000       0.422767        11.5041 
 217   0.0000       0.425537        11.5795 
 218   0.0000       0.428550        11.6614 
 219   0.0000       0.434438        11.8216 
 220   0.0000       0.437759        11.9120 
 221   0.0000       0.443750        12.0751 
 222   0.0000       0.445271        12.1164 
 223   0.0000       0.449275        12.2254 
 224   0.0000       0.450554        12.2602 
 225   0.0000       0.453657        12.3446 
 226   0.0000       0.455102        12.3840 
 227   0.0000       0.457017        12.4361 
 228   0.0000       0.461117        12.5476 
 229   0.0000       0.462727        12.5915 
 230   0.0000       0.467716        12.7272 
 231   0.0000       0.469013        12.7625 
 232   0.0000       0.473928        12.8962 
 233   0.0000       0.476255        12.9596 
 234   0.0000       0.482441        13.1279 
 235   0.0000       0.485161        13.2019 
 236   0.0000       0.487512        13.2659 
[...]
   Lowest Energy          :     0.115243797686
   Maximum Energy change  :     0.206383913316 (vector 9)
   Maximum residual norm  :     0.013666260787

                       ****Iteration    1****
              <<< Entering MO-section for Build Sigma(Double) >>>
   Forming the XC and CPCM contribution:
   Time for densities:            0.304
   Time for XC-Integration:      17.012
   Time for LR-CPCM terms:        7.930
   Time for Sigma-Completion:     0.210
   Time for building 10 sigma-vectors
   Data Preparation Phase         ...     0.01 sec
   Transformed RI Coulomb         ...     0.98 sec
   Transformed RI-exchange        ...   495.08 sec
   (ab|v) reading and digestion   ...   477.41 sec
   Final sigma-completion         ...     0.01 sec
   Done building sigma-vectors             Size of expansion space: 40
   Lowest Energy          :     0.101736041490
   Maximum Energy change  :     0.018740686466 (vector 1)
   Maximum residual norm  :     0.000869318173

                       ****Iteration    2****
              <<< Entering MO-section for Build Sigma(Double) >>>
   Forming the XC and CPCM contribution:
   Time for densities:            0.304
   Time for XC-Integration:      17.102
   Time for LR-CPCM terms:        7.733
   Time for Sigma-Completion:     0.205
   Time for building 10 sigma-vectors
   Data Preparation Phase         ...     0.01 sec
   Transformed RI Coulomb         ...     1.00 sec
   Transformed RI-exchange        ...   491.62 sec
   (ab|v) reading and digestion   ...   473.02 sec
   Final sigma-completion         ...     0.01 sec
   Done building sigma-vectors             Size of expansion space: 50
   Lowest Energy          :     0.100825085994
   Maximum Energy change  :     0.002562159784 (vector 7)
   Maximum residual norm  :     0.000198170311

                       ****Iteration    3****
              <<< Entering MO-section for Build Sigma(Double) >>>
   Forming the XC and CPCM contribution:
   Time for densities:            0.289
   Time for XC-Integration:      17.289
   Time for LR-CPCM terms:        7.912
   Time for Sigma-Completion:     0.204
   Time for building 10 sigma-vectors
   Data Preparation Phase         ...     0.01 sec
   Transformed RI Coulomb         ...     0.98 sec
   Transformed RI-exchange        ...   470.83 sec
   (ab|v) reading and digestion   ...   447.48 sec
   Final sigma-completion         ...     0.01 sec
   Done building sigma-vectors             Size of expansion space: 60
   Lowest Energy          :     0.100767856274
   Maximum Energy change  :     0.000373307314 (vector 7)
   Maximum residual norm  :     0.000035512270

                       ****Iteration    4****
              <<< Entering MO-section for Build Sigma(Double) >>>
   Forming the XC and CPCM contribution:
   Time for densities:            0.312
   Time for XC-Integration:      18.371
   Time for LR-CPCM terms:        8.047
   Time for Sigma-Completion:     0.206
   Time for building 10 sigma-vectors
   Data Preparation Phase         ...     0.01 sec
   Transformed RI Coulomb         ...     0.99 sec
   Transformed RI-exchange        ...   494.88 sec
   (ab|v) reading and digestion   ...   475.08 sec
   Final sigma-completion         ...     0.01 sec
   Done building sigma-vectors             Size of expansion space: 70
   Lowest Energy          :     0.100764523162
   Maximum Energy change  :     0.000084046367 (vector 7)
   Maximum residual norm  :     0.000005914976
   Rebuilding the expansion space

                       ****Iteration    5****
              <<< Entering MO-section for Build Sigma(Double) >>>
   Forming the XC and CPCM contribution:
   Time for densities:            0.608
   Time for XC-Integration:      35.922
   Time for LR-CPCM terms:       12.862
   Time for Sigma-Completion:     0.453
   Time for building 20 sigma-vectors
   Data Preparation Phase         ...     0.01 sec
   Transformed RI Coulomb         ...     1.77 sec
   Transformed RI-exchange        ...  1019.33 sec
   (ab|v) reading and digestion   ...   980.26 sec
   Final sigma-completion         ...     0.01 sec
   Done building sigma-vectors             Size of expansion space: 20
   Lowest Energy          :     0.100764402116
   Maximum Energy change  :     0.000011909557 (vector 9)
   Maximum residual norm  :     0.000001624587

                       ****Iteration    6****
              <<< Entering MO-section for Build Sigma(Double) >>>
   Forming the XC and CPCM contribution:
   Time for densities:            0.298
   Time for XC-Integration:      17.260
   Time for LR-CPCM terms:        7.783
   Time for Sigma-Completion:     0.176
   Time for building 10 sigma-vectors
   Data Preparation Phase         ...     0.01 sec
   Transformed RI Coulomb         ...     1.03 sec
   Transformed RI-exchange        ...   501.80 sec
   (ab|v) reading and digestion   ...   480.91 sec
   Final sigma-completion         ...     0.01 sec
   Done building sigma-vectors             Size of expansion space: 30
   Lowest Energy          :     0.100764391974
   Maximum Energy change  :     0.000003241743 (vector 9)
   Maximum residual norm  :     0.000000537039

      *** CONVERGENCE OF RESIDUAL NORM REACHED ***

Storing the converged CI vectors               ... optpbed3-b2plyp-train-15_job2.cis1

                 *** DAVIDSON DONE ***

Total time for solving the CIS problem:  3793.249sec

------------------
DOUBLES CORRECTION (Double precision version)
------------------

The (D) correction will be scaled by  0.2700
Doing v(i,a)*T(i,a) terms (RI)                    ... ok
Doing u(i,j,a,b) terms for state   0              ... ok
Doing u(i,j,a,b) terms for state   1              ... ok
Doing u(i,j,a,b) terms for state   2              ... ok
Doing u(i,j,a,b) terms for state   3              ... ok
Doing u(i,j,a,b) terms for state   4              ... ok
Doing u(i,j,a,b) terms for state   5              ... ok
Doing u(i,j,a,b) terms for state   6              ... ok
Doing u(i,j,a,b) terms for state   7              ... ok
Doing u(i,j,a,b) terms for state   8              ... ok
Doing u(i,j,a,b) terms for state   9              ... ok

Contributions to the (D) correction(s) (in eV)

STATE  Final   Init.   Total   v(ext)   v(int)  v(3)    u
       omega   omega     (D)                             
-----------------------------------------------------------------------------
   0   2.512   2.742  -0.230   0.795   1.080  -0.068  -2.037
   1   2.851   3.127  -0.276   0.850   0.761  -0.036  -1.851
   2   3.595   4.119  -0.523   0.778   0.949  -0.075  -2.176
   3   3.886   4.403  -0.518   0.635   1.005  -0.038  -2.120
   4   4.005   4.606  -0.601   0.734   0.848  -0.057  -2.126
   5   4.174   4.895  -0.721   0.765   0.768  -0.033  -2.221
   6   4.220   5.047  -0.827   0.825   0.741  -0.025  -2.368
   7   4.468   5.157  -0.690   0.796   0.805  -0.041  -2.249
   8   5.111   5.252  -0.141   0.039   1.087  -0.001  -1.265
   9   5.197   5.424  -0.227   0.099   1.074  -0.004  -1.396

(D)-timings
 V(i,a)*T(i,a) terms           ...   567.824 sec
 U(i,j,a,b) 3-internal         ...     9.578 sec
 U(i,j,a,b) 3-external         ...   368.324 sec
 U(i,j,a,b) pair terms         ...   215.481 sec
 Total measured time           ...  1941.396 sec

 Time for (ab|v) I/O           ...    91.742 sec


------------------------------------
TD-DFT/TDA EXCITED STATES (SINGLETS)
------------------------------------

the weight of the individual excitations are printed if larger than 1.0e-02

STATE  1:  E=   0.092302 au      2.512 eV    20258.0 cm**-1 <S**2> =   0.000000
    73a ->  76a  :     0.017717 (c=  0.13310657)
    74a ->  75a  :     0.942454 (c=  0.97080053)

STATE  2:  E=   0.104769 au      2.851 eV    22994.2 cm**-1 <S**2> =   0.000000
    67a ->  75a  :     0.018541 (c=  0.13616698)
    70a ->  75a  :     0.857508 (c= -0.92601741)
    70a ->  76a  :     0.046510 (c=  0.21566256)

STATE  3:  E=   0.132128 au      3.595 eV    28998.8 cm**-1 <S**2> =   0.000000
    69a ->  75a  :     0.014162 (c= -0.11900614)
    73a ->  75a  :     0.873025 (c= -0.93435830)
    74a ->  76a  :     0.045679 (c= -0.21372615)

STATE  4:  E=   0.142802 au      3.886 eV    31341.3 cm**-1 <S**2> =   0.000000
    71a ->  75a  :     0.179254 (c=  0.42338377)
    72a ->  75a  :     0.082010 (c= -0.28637384)
    73a ->  75a  :     0.049645 (c= -0.22281075)
    73a ->  76a  :     0.012707 (c=  0.11272376)
    74a ->  76a  :     0.616142 (c=  0.78494729)

STATE  5:  E=   0.147186 au      4.005 eV    32303.7 cm**-1 <S**2> =   0.000000
    71a ->  75a  :     0.330421 (c=  0.57482294)
    72a ->  75a  :     0.362669 (c= -0.60222009)
    72a ->  76a  :     0.010070 (c= -0.10034730)
    74a ->  76a  :     0.246538 (c= -0.49652636)

STATE  6:  E=   0.153397 au      4.174 eV    33666.6 cm**-1 <S**2> =   0.000000
    71a ->  75a  :     0.428937 (c= -0.65493316)
    72a ->  75a  :     0.453983 (c= -0.67378227)
    72a ->  76a  :     0.063157 (c= -0.25130976)

STATE  7:  E=   0.155075 au      4.220 eV    34035.0 cm**-1 <S**2> =   0.000000
    67a ->  75a  :     0.837168 (c=  0.91496863)
    67a ->  76a  :     0.064695 (c= -0.25435291)
    67a ->  88a  :     0.010326 (c= -0.10161781)
    70a ->  75a  :     0.019529 (c=  0.13974706)

STATE  8:  E=   0.164182 au      4.468 eV    36033.8 cm**-1 <S**2> =   0.000000
    68a ->  75a  :     0.053599 (c= -0.23151382)
    68a ->  76a  :     0.014749 (c=  0.12144399)
    69a ->  75a  :     0.841045 (c=  0.91708519)
    69a ->  76a  :     0.016634 (c= -0.12897104)
    73a ->  75a  :     0.014696 (c= -0.12122713)

STATE  9:  E=   0.187823 au      5.111 eV    41222.3 cm**-1 <S**2> =   0.000000
    73a ->  78a  :     0.029110 (c= -0.17061631)
    74a ->  77a  :     0.600999 (c=  0.77524122)
    74a ->  78a  :     0.174523 (c= -0.41775972)
    74a ->  79a  :     0.075049 (c= -0.27395149)
    74a ->  80a  :     0.014540 (c=  0.12058042)
    74a ->  85a  :     0.065930 (c=  0.25676792)

STATE 10:  E=   0.190992 au      5.197 eV    41917.8 cm**-1 <S**2> =   0.000000
    73a ->  77a  :     0.054222 (c=  0.23285521)
    74a ->  77a  :     0.100357 (c= -0.31679237)
    74a ->  78a  :     0.517006 (c= -0.71903159)
    74a ->  79a  :     0.025315 (c=  0.15910542)
    74a ->  80a  :     0.021951 (c= -0.14816021)
    74a ->  83a  :     0.095916 (c=  0.30970280)
    74a ->  87a  :     0.053519 (c= -0.23134225)
    74a ->  98a  :     0.028148 (c= -0.16777334)


-----------------------------
TD-DFT/TDA-EXCITATION SPECTRA
-----------------------------

Center of mass = (  0.6697, -0.1323, -0.5517)
Calculating the Dipole integrals                  ... done
Transforming integrals                            ... done
Calculating the Linear Momentum integrals         ... done
Transforming integrals                            ... done
Calculating angular momentum integrals            ... done
Transforming integrals                            ... done

-----------------------------------------------------------------------------
         ABSORPTION SPECTRUM VIA TRANSITION ELECTRIC DIPOLE MOMENTS
-----------------------------------------------------------------------------
State   Energy    Wavelength  fosc         T2        TX        TY        TZ  
        (cm-1)      (nm)                 (au**2)    (au)      (au)      (au) 
-----------------------------------------------------------------------------
   1   20258.0    493.6   1.469422084  23.87952   4.88517  -0.12088  -0.00263
   2   22994.2    434.9   0.008989185   0.12870  -0.35786   0.01859  -0.01697
   3   28998.8    344.8   0.037955694   0.43090  -0.08821  -0.46304  -0.45685
   4   31341.3    319.1   0.005708898   0.05997   0.23812   0.03527   0.04496
   5   32303.7    309.6   0.104557625   1.06556  -0.66475  -0.58194  -0.53387
   6   33666.6    297.0   0.093326365   0.91260   0.11123   0.75802   0.57064
   7   34035.0    293.8   0.000300291   0.00290   0.00930   0.03329  -0.04135
   8   36033.8    277.5   0.063016573   0.57573   0.72415   0.16078   0.15966
   9   41222.3    242.6   0.000119364   0.00095  -0.01869  -0.01754   0.01722
  10   41917.8    238.6   0.003851079   0.03025   0.01913   0.08726  -0.14922

-----------------------------------------------------------------------------
         ABSORPTION SPECTRUM VIA TRANSITION VELOCITY DIPOLE MOMENTS
-----------------------------------------------------------------------------
State   Energy    Wavelength   fosc        P2         PX        PY        PZ  
        (cm-1)      (nm)                 (au**2)     (au)      (au)      (au) 
-----------------------------------------------------------------------------
   1   20258.0    493.6   0.737104126   0.10205  -0.31806   0.02463   0.01700
   2   22994.2    434.9   0.005196921   0.00082   0.02819  -0.00313   0.00352
   3   28998.8    344.8   0.019783027   0.00392  -0.01051   0.04679   0.04026
   4   31341.3    319.1   0.004778559   0.00102   0.00040  -0.02376  -0.02142
   5   32303.7    309.6   0.013024297   0.00288   0.05325   0.00342   0.00533
   6   33666.6    297.0   0.003891130   0.00090  -0.02530   0.01375   0.00814
   7   34035.0    293.8   0.000363908   0.00008  -0.00031   0.00740  -0.00546
   8   36033.8    277.5   0.038813153   0.00956  -0.07826   0.04311   0.03969
   9   41222.3    242.6   0.000035286   0.00001   0.00307   0.00025   0.00067
  10   41917.8    238.6   0.004984657   0.00143  -0.00366  -0.02241   0.03020

-------------------------------------------------------------------
                             CD SPECTRUM
-------------------------------------------------------------------
State  Energy     Wavelength     R         MX        MY        MZ   
       (cm-1)       (nm)     (1e40*cgs)   (au)      (au)      (au)  
-------------------------------------------------------------------
   1   20258.0    493.6     82.10006   0.02581  -0.40743   0.44834
   2   22994.2    434.9    -58.47960   0.35004   0.10863   0.04682
   3   28998.8    344.8     -3.84760  -0.01176  -0.22532   0.24851
   4   31341.3    319.1      0.12721   0.01097   0.10006  -0.13057
   5   32303.7    309.6     -3.60107  -0.00287  -0.05817   0.08129
   6   33666.6    297.0     -1.15132  -0.00061  -0.06656   0.08425
   7   34035.0    293.8      1.70908   0.38720   0.04927   0.03905
   8   36033.8    277.5     -7.99693  -0.02478  -0.15451   0.16176
   9   41222.3    242.6     -0.77665   0.04051   0.14300   0.09400
  10   41917.8    238.6     -3.54281  -0.04124   0.14487   0.12979

-------------------------------------------------------------------
         CD SPECTRUM VIA TRANSITION VELOCITY DIPOLE MOMENTS        
-------------------------------------------------------------------
State  Energy     Wavelength     R         MX        MY        MZ   
       (cm-1)       (nm)     (1e40*cgs)   (au)      (au)      (au)  
-------------------------------------------------------------------
   1   20258.0    493.6    -54.23998   0.02581  -0.40743   0.44834
   2   22994.2    434.9     43.60736   0.35004   0.10863   0.04682
   3   28998.8    344.8     -1.47769  -0.01176  -0.22532   0.24851
   4   31341.3    319.1      1.40242   0.01097   0.10006  -0.13057
   5   32303.7    309.6      0.26140  -0.00287  -0.05817   0.08129
   6   33666.6    297.0     -0.65937  -0.00061  -0.06656   0.08425
   7   34035.0    293.8      0.08853   0.38720   0.04927   0.03905
   8   36033.8    277.5      4.87733  -0.02478  -0.15451   0.16176
   9   41222.3    242.6      0.55876   0.04051   0.14300   0.09400
  10   41917.8    238.6      2.03394  -0.04124   0.14487   0.12979

Total run time:     5742.498 sec

           *** ORCA-CIS/TD-DFT FINISHED WITHOUT ERROR ***

Maximum memory used throughout the entire CIS-calculation: 998.1 MB

-----------------------
CIS/TD-DFT TOTAL ENERGY
-----------------------

    E(SCF)  =  -1819.853289647 Eh
    DE(CIS) =      0.092302256 Eh (Root  1)
    ----------------------------- ---------
    E(tot)  =  -1819.760987391 Eh



-------------------------------------------------------------------------------
                          DFT DISPERSION CORRECTION                            
                                                                               
                              DFTD3 V3.1  Rev 1                                
                          USING Becke-Johnson damping                          
-------------------------------------------------------------------------------
The B2PLYP functional is recognized
Active option DFTDOPT                   ...         4   

molecular C6(AA) [au] = 14538.729804 


            DFT-D V3
 parameters
 s6 scaling factor         :     0.6400 
 a1 scaling factor         :     0.3065 
 s8 scaling factor         :     0.9147 
 a2 scaling factor         :     5.0570 
 ad hoc parameters k1-k3   :    16.0000     1.3333    -4.0000 

 Edisp/kcal,au: -19.981364097805  -0.031842327156 
 E6   /kcal   : -10.477291186 
 E8   /kcal   :  -9.504072912 
 % E8         :  47.564685102 

-------------------------   ----------------
Dispersion correction           -0.031842327
-------------------------   ----------------


-------------------------   --------------------
FINAL SINGLE POINT ENERGY     -1819.792829717719
-------------------------   --------------------


                            ***************************************
                            *     ORCA property calculations      *
                            ***************************************


  WARNING: The energy has been calculated at the MP2 level but the densities
           used in the property calculations are still SCF densities
           MP2 response densities have not been calculated 
           use %mp2 Density relaxed end
           or  %mp2 Density unrelaxed end

                                    ---------------------
                                    Active property flags
                                    ---------------------
   (+) Dipole Moment


------------------------------------------------------------------------------
                       ORCA ELECTRIC PROPERTIES CALCULATION
------------------------------------------------------------------------------

Dipole Moment Calculation                       ... on
Quadrupole Moment Calculation                   ... off
Polarizability Calculation                      ... off
GBWName                                         ... optpbed3-b2plyp-train-15_job2.gbw
Electron density                                ... optpbed3-b2plyp-train-15_job2.scfp
The origin for moment calculation is the CENTER OF MASS  = ( 0.669651, -0.132328 -0.551679)

-------------
DIPOLE MOMENT
-------------
                                X             Y             Z
Electronic contribution:      8.41446      -1.82341      -1.46691
Nuclear contribution   :     -7.27595       2.67188       2.29691
                        -----------------------------------------
Total Dipole Moment    :      1.13850       0.84848       0.83000
                        -----------------------------------------
Magnitude (a.u.)       :      1.64469
Magnitude (Debye)      :      4.18046



--------------------
Rotational spectrum 
--------------------
 
Rotational constants in cm-1:     0.050053     0.003429     0.003213 
Rotational constants in MHz :  1500.556015   102.806703    96.319584 

 Dipole components along the rotational axes: 
x,y,z [a.u.] :     1.099585     1.220631     0.077265 
x,y,z [Debye]:     2.794923     3.102598     0.196391 

 

Timings for individual modules:

Sum of individual times         ...     7433.813 sec (= 123.897 min)
GTO integral calculation        ...        4.981 sec (=   0.083 min)   0.1 %
SCF iterations                  ...      771.285 sec (=  12.855 min)  10.4 %
MP2 module                      ...      914.368 sec (=  15.239 min)  12.3 %
CIS module                      ...     5743.179 sec (=  95.720 min)  77.3 %



                             ****ORCA TERMINATED NORMALLY****
TOTAL RUN TIME: 0 days 4 hours 55 minutes 32 seconds 358 msec
