
                                 *****************
                                 * O   R   C   A *
                                 *****************

                                            #,                                       
                                            ###                                      
                                            ####                                     
                                            #####                                    
                                            ######                                   
                                           ########,                                 
                                     ,,################,,,,,                         
                               ,,#################################,,                 
                          ,,##########################################,,             
                       ,#########################################, ''#####,          
                    ,#############################################,,   '####,        
                  ,##################################################,,,,####,       
                ,###########''''           ''''###############################       
              ,#####''   ,,,,##########,,,,          '''####'''          '####       
            ,##' ,,,,###########################,,,                        '##       
           ' ,,###''''                  '''############,,,                           
         ,,##''                                '''############,,,,        ,,,,,,###''
      ,#''                                            '''#######################'''  
     '                                                          ''''####''''         
             ,#######,   #######,   ,#######,      ##                                
            ,#'     '#,  ##    ##  ,#'     '#,    #''#        ######   ,####,        
            ##       ##  ##   ,#'  ##            #'  '#       #        #'  '#        
            ##       ##  #######   ##           ,######,      #####,   #    #        
            '#,     ,#'  ##    ##  '#,     ,#' ,#      #,         ##   #,  ,#        
             '#######'   ##     ##  '#######'  #'      '#     #####' # '####'        



                  #######################################################
                  #                        -***-                        #
                  #          Department of theory and spectroscopy      #
                  #    Directorship and core code : Frank Neese         #
                  #        Max Planck Institute fuer Kohlenforschung    #
                  #                Kaiser Wilhelm Platz 1               #
                  #                 D-45470 Muelheim/Ruhr               #
                  #                      Germany                        #
                  #                                                     #
                  #                  All rights reserved                #
                  #                        -***-                        #
                  #######################################################


                         Program Version 5.0.2 -  RELEASE  -


 With contributions from (in alphabetic order):
   Daniel Aravena         : Magnetic Suceptibility
   Michael Atanasov       : Ab Initio Ligand Field Theory (pilot matlab implementation)
   Alexander A. Auer      : GIAO ZORA, VPT2 properties, NMR spectrum
   Ute Becker             : Parallelization
   Giovanni Bistoni       : ED, misc. LED, open-shell LED, HFLD
   Martin Brehm           : Molecular dynamics
   Dmytro Bykov           : SCF Hessian
   Vijay G. Chilkuri      : MRCI spin determinant printing, contributions to CSF-ICE
   Dipayan Datta          : RHF DLPNO-CCSD density
   Achintya Kumar Dutta   : EOM-CC, STEOM-CC
   Dmitry Ganyushin       : Spin-Orbit,Spin-Spin,Magnetic field MRCI
   Miquel Garcia          : C-PCM and meta-GGA Hessian, CC/C-PCM, Gaussian charge scheme
   Yang Guo               : DLPNO-NEVPT2, F12-NEVPT2, CIM, IAO-localization
   Andreas Hansen         : Spin unrestricted coupled pair/coupled cluster methods
   Benjamin Helmich-Paris : MC-RPA, TRAH-SCF, COSX integrals
   Lee Huntington         : MR-EOM, pCC
   Robert Izsak           : Overlap fitted RIJCOSX, COSX-SCS-MP3, EOM
   Marcus Kettner         : VPT2
   Christian Kollmar      : KDIIS, OOCD, Brueckner-CCSD(T), CCSD density, CASPT2, CASPT2-K
   Simone Kossmann        : Meta GGA functionals, TD-DFT gradient, OOMP2, MP2 Hessian
   Martin Krupicka        : Initial AUTO-CI
   Lucas Lang             : DCDCAS
   Marvin Lechner         : AUTO-CI (C++ implementation), FIC-MRCC
   Dagmar Lenk            : GEPOL surface, SMD
   Dimitrios Liakos       : Extrapolation schemes; Compound Job, initial MDCI parallelization
   Dimitrios Manganas     : Further ROCIS development; embedding schemes
   Dimitrios Pantazis     : SARC Basis sets
   Anastasios Papadopoulos: AUTO-CI, single reference methods and gradients
   Taras Petrenko         : DFT Hessian,TD-DFT gradient, ASA, ECA, R-Raman, ABS, FL, XAS/XES, NRVS
   Peter Pinski           : DLPNO-MP2, DLPNO-MP2 Gradient
   Christoph Reimann      : Effective Core Potentials
   Marius Retegan         : Local ZFS, SOC
   Christoph Riplinger    : Optimizer, TS searches, QM/MM, DLPNO-CCSD(T), (RO)-DLPNO pert. Triples
   Tobias Risthaus        : Range-separated hybrids, TD-DFT gradient, RPA, STAB
   Michael Roemelt        : Original ROCIS implementation
   Masaaki Saitow         : Open-shell DLPNO-CCSD energy and density
   Barbara Sandhoefer     : DKH picture change effects
   Avijit Sen             : IP-ROCIS
   Kantharuban Sivalingam : CASSCF convergence, NEVPT2, FIC-MRCI
   Bernardo de Souza      : ESD, SOC TD-DFT
   Georgi Stoychev        : AutoAux, RI-MP2 NMR, DLPNO-MP2 response
   Willem Van den Heuvel  : Paramagnetic NMR
   Boris Wezisla          : Elementary symmetry handling
   Frank Wennmohs         : Technical directorship


 We gratefully acknowledge several colleagues who have allowed us to
 interface, adapt or use parts of their codes:
   Stefan Grimme, W. Hujo, H. Kruse, P. Pracht,  : VdW corrections, initial TS optimization,
                  C. Bannwarth, S. Ehlert          DFT functionals, gCP, sTDA/sTD-DF
   Ed Valeev, F. Pavosevic, A. Kumar             : LibInt (2-el integral package), F12 methods
   Garnet Chan, S. Sharma, J. Yang, R. Olivares  : DMRG
   Ulf Ekstrom                                   : XCFun DFT Library
   Mihaly Kallay                                 : mrcc  (arbitrary order and MRCC methods)
   Jiri Pittner, Ondrej Demel                    : Mk-CCSD
   Frank Weinhold                                : gennbo (NPA and NBO analysis)
   Christopher J. Cramer and Donald G. Truhlar   : smd solvation model
   Lars Goerigk                                  : TD-DFT with DH, B97 family of functionals
   V. Asgeirsson, H. Jonsson                     : NEB implementation
   FAccTs GmbH                                   : IRC, NEB, NEB-TS, DLPNO-Multilevel, CI-OPT
                                                   MM, QMMM, 2- and 3-layer-ONIOM, Crystal-QMMM,
                                                   LR-CPCM, SF, NACMEs, symmetry and pop. for TD-DFT,
                                                   nearIR, NL-DFT gradient (VV10), updates on ESD,
                                                   ML-optimized integration grids
   S Lehtola, MJT Oliveira, MAL Marques          : LibXC Library
   Liviu Ungur et al                             : ANISO software


 Your calculation uses the libint2 library for the computation of 2-el integrals
 For citations please refer to: http://libint.valeyev.net

 Your ORCA version has been built with support for libXC version: 5.1.0
 For citations please refer to: https://tddft.org/programs/libxc/

 This ORCA versions uses:
   CBLAS   interface :  Fast vector & matrix operations
   LAPACKE interface :  Fast linear algebra routines
   SCALAPACK package :  Parallel linear algebra routines
   Shared memory     :  Shared parallel matrices
   BLAS/LAPACK       :  OpenBLAS 0.3.15  USE64BITINT DYNAMIC_ARCH NO_AFFINITY Sandybridge SINGLE_THREADED
        Core in use  :  Sandybridge
   Copyright (c) 2011-2014, The OpenBLAS Project


Your calculation utilizes the atom-pairwise dispersion correction
with the Becke-Johnson damping scheme (D3BJ)
Cite in your paper:
S.Grimme, S.Ehrlich, L.Goerigk, J Comput Chem, (2011), 32, 1456–1465 
S.Grimme, J.Antony, S.Ehrlich and H.Krieg, J.Chem.Phys., 132, (2010), 154104 
   

Your calculation utilizes the SMD solvation module
Please cite in your paper:
A.V. Marenich, C.J. Cramer, D.G. Truhlar J. Phys. Chem. B, 113, (2009), 6378 

================================================================================

----- Orbital basis set information -----
Your calculation utilizes the basis: aug-cc-pVTZ 
    H, B-Ne : Obtained from the ccRepo (grant-hill.group.shef.ac.uk/ccrepo) Feb. 2017
              R. A. Kendall, T. H. Dunning, Jr., R. J. Harrison, J. Chem. Phys. 96, 6796 (1992)
         He : Obtained from the ccRepo (grant-hill.group.shef.ac.uk/ccrepo) Feb. 2017
              D. E. Woon, T. H. Dunning, Jr., J. Chem. Phys. 100, 2975 (1994)
  Li-Be, Na : Obtained from the ccRepo (grant-hill.group.shef.ac.uk/ccrepo) Feb. 2017
              B. P. Prascher, D. E. Woon, K. A. Peterson, T. H. Dunning, Jr., A. K. Wilson, Theor. Chem. Acc. 128, 69 (2011)
         Mg : Obtained from the Peterson Research Group Website (tyr0.chem.wsu.edu/~kipeters) Feb. 2017
              B. P. Prascher, D. E. Woon, K. A. Peterson, T. H. Dunning, Jr., A. K. Wilson, Theor. Chem. Acc. 128, 69 (2011)
      Al-Ar : Obtained from the ccRepo (grant-hill.group.shef.ac.uk/ccrepo) Feb. 2017
              D. E. Woon, T. H. Dunning, Jr., J. Chem. Phys. 98, 1358 (1993)
      Sc-Zn : Obtained from the ccRepo (grant-hill.group.shef.ac.uk/ccrepo) Feb. 2017
              N. B. Balabanov, K. A. Peterson, J. Chem. Phys. 123, 064107 (2005)
              N. B. Balabanov, K. A. Peterson, J. Chem. Phys. 125, 074110 (2006)
      Ga-Kr : Obtained from the ccRepo (grant-hill.group.shef.ac.uk/ccrepo) Feb. 2017
              A. K. Wilson, D. E. Woon, K. A. Peterson, T. H. Dunning, Jr., J. Chem. Phys. 110, 7667 (1999)
     Ag, Au : Obtained from the Peterson Research Group Website (tyr0.chem.wsu.edu/~kipeters) Feb. 2017
              K. A. Peterson, C. Puzzarini, Theor. Chem. Acc. 114, 283 (2005)

The basis set includes element-specific modifications.

Your calculation utilizes the basis: cc-pVTZ 
       H, B-Ne : Obtained from the ccRepo (grant-hill.group.shef.ac.uk/ccrepo) Feb. 2017
                 T. H. Dunning, Jr., J. Chem. Phys. 90, 1007 (1989)
            He : Obtained from the ccRepo (grant-hill.group.shef.ac.uk/ccrepo) Feb. 2017
                 D. E. Woon, T. H. Dunning, Jr., J. Chem. Phys. 100, 2975 (1994)
  Li-Be, Na-Mg : Obtained from the ccRepo (grant-hill.group.shef.ac.uk/ccrepo) Feb. 2017
                 B. P. Prascher, D. E. Woon, K. A. Peterson, T. H. Dunning, Jr., A. K. Wilson, Theor. Chem. Acc. 128, 69 (2011)
         Al-Ar : Obtained from the ccRepo (grant-hill.group.shef.ac.uk/ccrepo) Feb. 2017
                 D. E. Woon, T. H. Dunning, Jr., J. Chem. Phys. 98, 1358 (1993)
            Ca : Obtained from the Peterson Research Group Website (tyr0.chem.wsu.edu/~kipeters) Feb. 2017
                 J. Koput, K. A. Peterson, J. Phys. Chem. 106, 9595 (2002)
         Sc-Zn : Obtained from the ccRepo (grant-hill.group.shef.ac.uk/ccrepo) Feb. 2017
                 N. B. Balabanov, K. A. Peterson, J. Chem. Phys. 123, 064107 (2005)
                 N. B. Balabanov, K. A. Peterson, J. Chem. Phys. 125, 074110 (2006)
         Ga-Kr : Obtained from the ccRepo (grant-hill.group.shef.ac.uk/ccrepo) Feb. 2017
                 A. K. Wilson, D. E. Woon, K. A. Peterson, T. H. Dunning, Jr., J. Chem. Phys. 110, 7667 (1999)
             Y : Obtained from the ccRepo (grant-hill.group.shef.ac.uk/ccrepo) Feb. 2017
                 K. A. Peterson, D. Figgen, M. Dolg, H. Stoll, J. Chem. Phys. 126, 124101 (2007)
        Ag, Au : Obtained from the Peterson Research Group Website (tyr0.chem.wsu.edu/~kipeters) Feb. 2017
                 K. A. Peterson, C. Puzzarini, Theor. Chem. Acc. 114, 283 (2005)

----- AuxJ basis set information -----
Your calculation utilizes the auxiliary basis: aug-cc-pVTZ/JK 
  H, B-F, Al-Cl, Ga-Br : Obtained from the TURBOMOLE 7.0 basis set library

The basis set includes element-specific modifications.

Your calculation utilizes the auxiliary basis: cc-pVTZ/JK 
  H, B-F, Al-Cl, Ga-Br : Obtained from the TURBOMOLE 7.0 basis set library

----- AuxC basis set information -----
Your calculation utilizes the auxiliary basis: aug-cc-pVTZ/C 
  H-He, B-F, Al-Ar, Ga-Kr : Obtained from the EMSL Basis Set Exchange (bse.pnl.gov) Feb. 2017
                            F. Weigend, A. Kohn, C. Hattig, J. Chem. Phys. 116, 3175 (2002)
                   Be, Mg : Obtained from the TURBOMOLE 7.0 basis set library
                            C. Haettig, Phys. Chem. Chem. Phys. 7, 59 (2005)
                       Ne : Obtained from the EMSL Basis Set Exchange (bse.pnl.gov) Feb. 2017
                            C. Haettig, Phys. Chem. Chem. Phys. 7, 59 (2005)
                            F. Weigend, A. Kohn, C. Hattig, J. Chem. Phys. 116, 3175 (2002)
                    Sc-Zn : Obtained from the EMSL Basis Set Exchange (bse.pnl.gov) Feb. 2017
                            J. G. Hill, J. A. Platts, J. Chem. Phys. 128, 044104 (2008)

The basis set includes element-specific modifications.

Your calculation utilizes the auxiliary basis: cc-pVTZ/C 
  Obtained from the EMSL Basis Set Exchange (bse.pnl.gov) Feb. 2017
  H-He, B-F, Al-Ar, Ga-Kr : F. Weigend, A. Kohn, C. Hattig, J. Chem. Phys. 116, 3175 (2002)
             Li-Be, Na-Mg : C. Haettig, Phys. Chem. Chem. Phys. 7, 59 (2005)
                       Ne : C. Haettig, Phys. Chem. Chem. Phys. 7, 59 (2005)
                            F. Weigend, A. Kohn, C. Hattig, J. Chem. Phys. 116, 3175 (2002)
                    Sc-Zn : J. G. Hill, J. A. Platts, J. Chem. Phys. 128, 044104 (2008)

================================================================================
                                        WARNINGS
                       Please study these warnings very carefully!
================================================================================


WARNING: Geometry Optimization
  ===> : Switching off AutoStart
         For restart on a previous wavefunction, please use MOREAD

INFO   : the flag for use of the SHARK integral package has been found!



***************************************
The coordinates will be read from file: 
***************************************


Your calculation utilizes the atom-pairwise dispersion correction
with the Becke-Johnson damping scheme (D3BJ)
Cite in your paper:
S.Grimme, S.Ehrlich, L.Goerigk, J Comput Chem, (2011), 32, 1456–1465 
S.Grimme, J.Antony, S.Ehrlich and H.Krieg, J.Chem.Phys., 132, (2010), 154104 
   

Your calculation utilizes the SMD solvation module
Please cite in your paper:
A.V. Marenich, C.J. Cramer, D.G. Truhlar J. Phys. Chem. B, 113, (2009), 6378 

================================================================================

----- Orbital basis set information -----
Your calculation utilizes the basis: aug-cc-pVTZ 
    H, B-Ne : Obtained from the ccRepo (grant-hill.group.shef.ac.uk/ccrepo) Feb. 2017
              R. A. Kendall, T. H. Dunning, Jr., R. J. Harrison, J. Chem. Phys. 96, 6796 (1992)
         He : Obtained from the ccRepo (grant-hill.group.shef.ac.uk/ccrepo) Feb. 2017
              D. E. Woon, T. H. Dunning, Jr., J. Chem. Phys. 100, 2975 (1994)
  Li-Be, Na : Obtained from the ccRepo (grant-hill.group.shef.ac.uk/ccrepo) Feb. 2017
              B. P. Prascher, D. E. Woon, K. A. Peterson, T. H. Dunning, Jr., A. K. Wilson, Theor. Chem. Acc. 128, 69 (2011)
         Mg : Obtained from the Peterson Research Group Website (tyr0.chem.wsu.edu/~kipeters) Feb. 2017
              B. P. Prascher, D. E. Woon, K. A. Peterson, T. H. Dunning, Jr., A. K. Wilson, Theor. Chem. Acc. 128, 69 (2011)
      Al-Ar : Obtained from the ccRepo (grant-hill.group.shef.ac.uk/ccrepo) Feb. 2017
              D. E. Woon, T. H. Dunning, Jr., J. Chem. Phys. 98, 1358 (1993)
      Sc-Zn : Obtained from the ccRepo (grant-hill.group.shef.ac.uk/ccrepo) Feb. 2017
              N. B. Balabanov, K. A. Peterson, J. Chem. Phys. 123, 064107 (2005)
              N. B. Balabanov, K. A. Peterson, J. Chem. Phys. 125, 074110 (2006)
      Ga-Kr : Obtained from the ccRepo (grant-hill.group.shef.ac.uk/ccrepo) Feb. 2017
              A. K. Wilson, D. E. Woon, K. A. Peterson, T. H. Dunning, Jr., J. Chem. Phys. 110, 7667 (1999)
     Ag, Au : Obtained from the Peterson Research Group Website (tyr0.chem.wsu.edu/~kipeters) Feb. 2017
              K. A. Peterson, C. Puzzarini, Theor. Chem. Acc. 114, 283 (2005)

The basis set includes element-specific modifications.

Your calculation utilizes the basis: cc-pVTZ 
       H, B-Ne : Obtained from the ccRepo (grant-hill.group.shef.ac.uk/ccrepo) Feb. 2017
                 T. H. Dunning, Jr., J. Chem. Phys. 90, 1007 (1989)
            He : Obtained from the ccRepo (grant-hill.group.shef.ac.uk/ccrepo) Feb. 2017
                 D. E. Woon, T. H. Dunning, Jr., J. Chem. Phys. 100, 2975 (1994)
  Li-Be, Na-Mg : Obtained from the ccRepo (grant-hill.group.shef.ac.uk/ccrepo) Feb. 2017
                 B. P. Prascher, D. E. Woon, K. A. Peterson, T. H. Dunning, Jr., A. K. Wilson, Theor. Chem. Acc. 128, 69 (2011)
         Al-Ar : Obtained from the ccRepo (grant-hill.group.shef.ac.uk/ccrepo) Feb. 2017
                 D. E. Woon, T. H. Dunning, Jr., J. Chem. Phys. 98, 1358 (1993)
            Ca : Obtained from the Peterson Research Group Website (tyr0.chem.wsu.edu/~kipeters) Feb. 2017
                 J. Koput, K. A. Peterson, J. Phys. Chem. 106, 9595 (2002)
         Sc-Zn : Obtained from the ccRepo (grant-hill.group.shef.ac.uk/ccrepo) Feb. 2017
                 N. B. Balabanov, K. A. Peterson, J. Chem. Phys. 123, 064107 (2005)
                 N. B. Balabanov, K. A. Peterson, J. Chem. Phys. 125, 074110 (2006)
         Ga-Kr : Obtained from the ccRepo (grant-hill.group.shef.ac.uk/ccrepo) Feb. 2017
                 A. K. Wilson, D. E. Woon, K. A. Peterson, T. H. Dunning, Jr., J. Chem. Phys. 110, 7667 (1999)
             Y : Obtained from the ccRepo (grant-hill.group.shef.ac.uk/ccrepo) Feb. 2017
                 K. A. Peterson, D. Figgen, M. Dolg, H. Stoll, J. Chem. Phys. 126, 124101 (2007)
        Ag, Au : Obtained from the Peterson Research Group Website (tyr0.chem.wsu.edu/~kipeters) Feb. 2017
                 K. A. Peterson, C. Puzzarini, Theor. Chem. Acc. 114, 283 (2005)

----- AuxJ basis set information -----
Your calculation utilizes the auxiliary basis: aug-cc-pVTZ/JK 
  H, B-F, Al-Cl, Ga-Br : Obtained from the TURBOMOLE 7.0 basis set library

The basis set includes element-specific modifications.

Your calculation utilizes the auxiliary basis: cc-pVTZ/JK 
  H, B-F, Al-Cl, Ga-Br : Obtained from the TURBOMOLE 7.0 basis set library

----- AuxC basis set information -----
Your calculation utilizes the auxiliary basis: aug-cc-pVTZ/C 
  H-He, B-F, Al-Ar, Ga-Kr : Obtained from the EMSL Basis Set Exchange (bse.pnl.gov) Feb. 2017
                            F. Weigend, A. Kohn, C. Hattig, J. Chem. Phys. 116, 3175 (2002)
                   Be, Mg : Obtained from the TURBOMOLE 7.0 basis set library
                            C. Haettig, Phys. Chem. Chem. Phys. 7, 59 (2005)
                       Ne : Obtained from the EMSL Basis Set Exchange (bse.pnl.gov) Feb. 2017
                            C. Haettig, Phys. Chem. Chem. Phys. 7, 59 (2005)
                            F. Weigend, A. Kohn, C. Hattig, J. Chem. Phys. 116, 3175 (2002)
                    Sc-Zn : Obtained from the EMSL Basis Set Exchange (bse.pnl.gov) Feb. 2017
                            J. G. Hill, J. A. Platts, J. Chem. Phys. 128, 044104 (2008)

The basis set includes element-specific modifications.

Your calculation utilizes the auxiliary basis: cc-pVTZ/C 
  Obtained from the EMSL Basis Set Exchange (bse.pnl.gov) Feb. 2017
  H-He, B-F, Al-Ar, Ga-Kr : F. Weigend, A. Kohn, C. Hattig, J. Chem. Phys. 116, 3175 (2002)
             Li-Be, Na-Mg : C. Haettig, Phys. Chem. Chem. Phys. 7, 59 (2005)
                       Ne : C. Haettig, Phys. Chem. Chem. Phys. 7, 59 (2005)
                            F. Weigend, A. Kohn, C. Hattig, J. Chem. Phys. 116, 3175 (2002)
                    Sc-Zn : J. G. Hill, J. A. Platts, J. Chem. Phys. 128, 044104 (2008)

================================================================================
                                        WARNINGS
                       Please study these warnings very carefully!
================================================================================

INFO   : Checking CIS options ...
  ===> : (D) CORRECTION FOUND - SETTING MODE=3
  ===> : JK MODE FOUND - ACTIVATING RI-MP2 CODE
  ===> : MP2 AND CIS FOUND - CHECKING
WARNING: CIS(D) and MP2 runs must have the same orbital window
  ===> : adjusting orbital windows

WARNING: No MP2 level density has been requested!
         To caclulate MP2 level properties use
         %mp2 Density relaxed end
         or
         %mp2 Density unrelaxed end
         Otherwise for double-hybrid DFT only the energy is correct!

WARNING: The frozen-core approximation is turned on by default for 
         the MP2 part of double-hybrid DFT.

WARNING:  You are using a Range-Separated Double Hybrid functional with Doubles Correction 
          Changing Mode to AOINTS 


INFO   : the flag for use of the SHARK integral package has been found!

================================================================================
                                       INPUT FILE
================================================================================
NAME = optpbed3-wb2plyp-train-15.inp
|  1> ! pbe0 d3bj aug-cc-PVTZ RIJCOSX Opt
|  2> %maxcore 4000
|  3> %basis
|  4>  AuxJ "aug-cc-PVTZ/JK"
|  5>  AuxC "aug-cc-PVTZ/C"
|  6>  newGTO H "cc-PVTZ" end
|  7>  newAuxJGTO H "cc-PVTZ/JK" end
|  8>  newAuxCGTO H "cc-PVTZ/C" end
|  9> end
| 10> %cpcm
| 11>  SMD true
| 12>  SMDsolvent "dimethylsulfoxide"
| 13> end
| 14> %pal nprocs 4 end
| 15> * xyz 0 1
| 16> C         -6.40460        1.20310        0.64210
| 17> C         -5.24970        0.46740        0.07220
| 18> C         -5.28390       -0.60600       -0.78920
| 19> N         -4.10750       -1.10170       -1.17240
| 20> C         -3.10180       -0.47260       -0.65330
| 21> N         -1.84160       -0.77160       -0.88030
| 22> N         -0.94070       -0.06400       -0.28470
| 23> C          0.33600       -0.36430       -0.52760
| 24> C          0.92970       -1.31870       -1.34880
| 25> C          2.31270       -1.28290       -1.30880
| 26> C          2.81780       -0.30790       -0.46080
| 27> C          4.18450       -0.01940       -0.19830
| 28> C          4.70860        0.93560        0.64110
| 29> C          6.11230        0.94260        0.65870
| 30> C          6.65350        0.00020       -0.16130
| 31> S          5.45820       -0.92080       -0.97660
| 32> S          1.54470        0.58790        0.30300
| 33> S         -3.62590        0.89480        0.43750
| 34> H         -7.33680        0.75810        0.30210
| 35> H         -6.37820        2.24890        0.33630
| 36> H         -6.37380        1.17710        1.73100
| 37> H         -6.18500       -1.05910       -1.16430
| 38> H          0.33790       -1.99490       -1.93880
| 39> H          2.95460       -1.93830       -1.87160
| 40> H          4.09050        1.60000        1.21750
| 41> H          6.69910        1.61820        1.25460
| 42> H          7.68910       -0.21160       -0.33850
| 43> *
| 44> 
| 45> 
| 46> $new_job
| 47> ! wb2plyp aug-cc-PVTZ RIJCOSX SP
| 48> %maxcore 4000
| 49> %basis
| 50>  AuxJ "aug-cc-PVTZ/JK"
| 51>  AuxC "aug-cc-PVTZ/C"
| 52>  newGTO H "cc-PVTZ" end
| 53>  newAuxJGTO H "cc-PVTZ/JK" end
| 54>  newAuxCGTO H "cc-PVTZ/C" end
| 55> end
| 56> %cpcm
| 57>  SMD true
| 58>  SMDsolvent "dimethylsulfoxide"
| 59> end
| 60> %pal nprocs 4 end
| 61> %tddft
| 62>  nroots 10
| 63>  maxdim 7
| 64> end
| 65> * xyzfile 0 1
| 66> 
| 67>                          ****END OF INPUT****
================================================================================


                 $$$$$$$$$$$$$$$$$$$$$$$$$$$$$$$$$$$$$$$$$$$$$$ 
                 $ THERE ARE  2 JOBS TO BE PROCESSED THIS RUN $
                 $$$$$$$$$$$$$$$$$$$$$$$$$$$$$$$$$$$$$$$$$$$$$$ 




                 $$$$$$$$$$$$$$$$  JOB NUMBER  1 $$$$$$$$$$$$$$


                       *****************************
                       * Geometry Optimization Run *
                       *****************************

Geometry optimization settings:
Update method            Update   .... BFGS
Choice of coordinates    CoordSys .... Z-matrix Internals
Initial Hessian          InHess   .... Almoef's Model

Convergence Tolerances:
Energy Change            TolE     ....  5.0000e-06 Eh
Max. Gradient            TolMAXG  ....  3.0000e-04 Eh/bohr
RMS Gradient             TolRMSG  ....  1.0000e-04 Eh/bohr
Max. Displacement        TolMAXD  ....  4.0000e-03 bohr
RMS Displacement         TolRMSD  ....  2.0000e-03 bohr
Strict Convergence                ....  False
------------------------------------------------------------------------------
                        ORCA OPTIMIZATION COORDINATE SETUP
------------------------------------------------------------------------------

The optimization will be done in new redundant internal coordinates
Making redundant internal coordinates   ...  (new redundants) done
Evaluating the initial hessian          ...  (Almloef) done
Evaluating the coordinates              ...  done
Calculating the B-matrix                .... done
Calculating the G-matrix                .... done
Diagonalizing the G-matrix              .... done
Small eigenvalue found = 1.880e-03
Small eigenvalue found = 9.429e-03
Small eigenvalue found = 1.737e-02
Small eigenvalue found = 1.920e-02
Small eigenvalue found = 2.312e-02
The first mode is                       ....   58
The number of degrees of freedom        ....   75

    -----------------------------------------------------------------
                    Redundant Internal Coordinates


    -----------------------------------------------------------------
         Definition                    Initial Value    Approx d2E/dq
    -----------------------------------------------------------------
      1. B(C   1,C   0)                  1.4832         0.443680   
      2. B(C   2,C   1)                  1.3767         0.656025   
      3. B(N   3,C   2)                  1.3328         0.690338   
      4. B(C   4,N   3)                  1.2949         0.793714   
      5. B(N   5,C   4)                  1.3149         0.737308   
      6. B(N   6,N   5)                  1.2911         0.720655   
      7. B(C   7,N   6)                  1.3338         0.687807   
      8. B(C   8,C   7)                  1.3920         0.620170   
      9. B(C   9,C   8)                  1.3840         0.638624   
     10. B(C  10,C   9)                  1.3874         0.630813   
     11. B(C  11,C  10)                  1.4213         0.556993   
     12. B(C  12,C  11)                  1.3752         0.659598   
     13. B(C  13,C  12)                  1.4038         0.593851   
     14. B(C  14,C  13)                  1.3614         0.694009   
     15. B(S  15,C  11)                  1.7437         0.459364   
     16. B(S  15,C  14)                  1.7151         0.510235   
     17. B(S  16,C  10)                  1.7340         0.476139   
     18. B(S  16,C   7)                  1.7486         0.451245   
     19. B(S  17,C   4)                  1.8260         0.339533   
     20. B(S  17,C   1)                  1.7184         0.504187   
     21. B(H  18,C   0)                  1.0875         0.363444   
     22. B(H  19,C   0)                  1.0899         0.360216   
     23. B(H  20,C   0)                  1.0896         0.360569   
     24. B(H  21,C   2)                  1.0761         0.378972   
     25. B(H  22,C   8)                  1.0750         0.380533   
     26. B(H  23,C   9)                  1.0763         0.378747   
     27. B(H  24,C  12)                  1.0750         0.380443   
     28. B(H  25,C  13)                  1.0751         0.380343   
     29. B(H  26,C  14)                  1.0718         0.385018   
     30. A(H  18,C   0,H  20)          109.0807         0.291322   
     31. A(C   1,C   0,H  20)          110.4954         0.333732   
     32. A(C   1,C   0,H  18)          110.1432         0.334172   
     33. A(H  19,C   0,H  20)          107.6133         0.290914   
     34. A(C   1,C   0,H  19)          110.4435         0.333677   
     35. A(H  18,C   0,H  19)          109.0069         0.291277   
     36. A(C   2,C   1,S  17)          110.5123         0.445940   
     37. A(C   0,C   1,S  17)          122.0560         0.415702   
     38. A(C   0,C   1,C   2)          127.4316         0.413013   
     39. A(N   3,C   2,H  21)          118.8342         0.360300   
     40. A(C   1,C   2,H  21)          124.5546         0.359413   
     41. A(C   1,C   2,N   3)          116.6112         0.444164   
     42. A(C   2,N   3,C   4)          112.9278         0.456763   
     43. A(N   5,C   4,S  17)          123.2627         0.421372   
     44. A(N   3,C   4,S  17)          112.3572         0.426964   
     45. A(N   3,C   4,N   5)          124.3799         0.462283   
     46. A(C   4,N   5,N   6)          117.6752         0.451148   
     47. A(N   5,N   6,C   7)          117.4174         0.445496   
     48. A(N   6,C   7,C   8)          132.0685         0.439383   
     49. A(C   8,C   7,S  16)          111.0245         0.432689   
     50. A(N   6,C   7,S  16)          116.9060         0.437941   
     51. A(C   9,C   8,H  22)          125.6084         0.358022   
     52. A(C   7,C   8,H  22)          121.3501         0.356243   
     53. A(C   7,C   8,C   9)          113.0414         0.436407   
     54. A(C  10,C   9,H  23)          122.0351         0.356989   
     55. A(C   8,C   9,H  23)          124.4096         0.357736   
     56. A(C   8,C   9,C  10)          113.5552         0.437747   
     57. A(C   9,C  10,C  11)          127.2739         0.427117   
     58. A(C  11,C  10,S  16)          121.3188         0.428534   
     59. A(C   9,C  10,S  16)          111.4073         0.438234   
     60. A(C  12,C  11,S  15)          110.6731         0.438927   
     61. A(C  10,C  11,S  15)          120.9996         0.425789   
     62. A(C  10,C  11,C  12)          128.3273         0.430550   
     63. A(C  11,C  12,C  13)          113.0900         0.435539   
     64. A(C  11,C  12,H  24)          122.5009         0.359983   
     65. A(C  13,C  12,H  24)          124.4092         0.353619   
     66. A(C  12,C  13,C  14)          112.7364         0.439551   
     67. A(C  14,C  13,H  25)          123.4953         0.363104   
     68. A(C  12,C  13,H  25)          123.7683         0.353603   
     69. A(S  15,C  14,H  26)          119.2536         0.363375   
     70. A(C  13,C  14,H  26)          128.3516         0.363863   
     71. A(C  13,C  14,S  15)          112.3948         0.451493   
     72. A(C  11,S  15,C  14)           91.1058         0.442350   
     73. A(C   7,S  16,C  10)           90.9714         0.435460   
     74. A(C   1,S  17,C   4)           87.5915         0.418094   
     75. D(C   2,C   1,C   0,H  20)    122.0347         0.014522   
     76. D(S  17,C   1,C   0,H  18)   -178.7265         0.014522   
     77. D(S  17,C   1,C   0,H  19)     60.8127         0.014522   
     78. D(C   2,C   1,C   0,H  18)      1.4483         0.014522   
     79. D(S  17,C   1,C   0,H  20)    -58.1401         0.014522   
     80. D(C   2,C   1,C   0,H  19)   -119.0125         0.014522   
     81. D(N   3,C   2,C   1,S  17)     -0.0721         0.030005   
     82. D(H  21,C   2,C   1,S  17)    179.9598         0.030005   
     83. D(H  21,C   2,C   1,C   0)     -0.1984         0.030005   
     84. D(N   3,C   2,C   1,C   0)    179.7697         0.030005   
     85. D(C   4,N   3,C   2,H  21)   -179.9482         0.035595   
     86. D(C   4,N   3,C   2,C   1)      0.0817         0.035595   
     87. D(S  17,C   4,N   3,C   2)     -0.0518         0.048463   
     88. D(N   5,C   4,N   3,C   2)   -179.8732         0.048463   
     89. D(N   6,N   5,C   4,N   3)   -179.4409         0.041138   
     90. D(N   6,N   5,C   4,S  17)      0.7566         0.041138   
     91. D(C   7,N   6,N   5,C   4)   -179.4365         0.040845   
     92. D(S  16,C   7,N   6,N   5)   -179.1778         0.035310   
     93. D(C   8,C   7,N   6,N   5)      1.2188         0.035310   
     94. D(H  22,C   8,C   7,S  16)   -179.9138         0.026615   
     95. D(H  22,C   8,C   7,N   6)     -0.2927         0.026615   
     96. D(C   9,C   8,C   7,S  16)      0.0131         0.026615   
     97. D(C   9,C   8,C   7,N   6)    179.6342         0.026615   
     98. D(H  23,C   9,C   8,H  22)     -0.0571         0.028328   
     99. D(H  23,C   9,C   8,C   7)   -179.9803         0.028328   
    100. D(C  10,C   9,C   8,H  22)    179.9846         0.028328   
    101. D(C  10,C   9,C   8,C   7)      0.0614         0.028328   
    102. D(S  16,C  10,C   9,H  23)    179.9324         0.027595   
    103. D(S  16,C  10,C   9,C   8)     -0.1082         0.027595   
    104. D(C  11,C  10,C   9,H  23)     -0.1000         0.027595   
    105. D(C  11,C  10,C   9,C   8)    179.8594         0.027595   
    106. D(S  15,C  11,C  10,S  16)   -179.7202         0.021243   
    107. D(S  15,C  11,C  10,C   9)      0.3152         0.021243   
    108. D(C  12,C  11,C  10,S  16)      0.3067         0.021243   
    109. D(C  12,C  11,C  10,C   9)   -179.6579         0.021243   
    110. D(H  24,C  12,C  11,S  15)   -179.9906         0.030356   
    111. D(H  24,C  12,C  11,C  10)     -0.0152         0.030356   
    112. D(C  13,C  12,C  11,S  15)     -0.0125         0.030356   
    113. D(C  13,C  12,C  11,C  10)    179.9629         0.030356   
    114. D(H  25,C  13,C  12,H  24)     -0.0073         0.024285   
    115. D(H  25,C  13,C  12,C  11)   -179.9849         0.024285   
    116. D(C  14,C  13,C  12,H  24)    179.9890         0.024285   
    117. D(C  14,C  13,C  12,C  11)      0.0113         0.024285   
    118. D(H  26,C  14,C  13,H  25)     -0.0233         0.033874   
    119. D(H  26,C  14,C  13,C  12)    179.9804         0.033874   
    120. D(S  15,C  14,C  13,H  25)    179.9915         0.033874   
    121. D(S  15,C  14,C  13,C  12)     -0.0048         0.033874   
    122. D(C  11,S  15,C  14,H  26)   -179.9887         0.005367   
    123. D(C  11,S  15,C  14,C  13)     -0.0020         0.005367   
    124. D(C  14,S  15,C  11,C  12)      0.0082         0.004603   
    125. D(C  14,S  15,C  11,C  10)   -179.9692         0.004603   
    126. D(C   7,S  16,C  10,C  11)   -179.8737         0.004844   
    127. D(C   7,S  16,C  10,C   9)      0.0961         0.004844   
    128. D(C  10,S  16,C   7,C   8)     -0.0623         0.004489   
    129. D(C  10,S  16,C   7,N   6)   -179.7468         0.004489   
    130. D(C   1,S  17,C   4,N   5)    179.8338         0.003156   
    131. D(C   1,S  17,C   4,N   3)      0.0100         0.003156   
    132. D(C   4,S  17,C   1,C   2)      0.0326         0.005271   
    133. D(C   4,S  17,C   1,C   0)   -179.8192         0.005271   
    -----------------------------------------------------------------

Number of atoms                         .... 27
Number of degrees of freedom            .... 133

         *************************************************************
         *                GEOMETRY OPTIMIZATION CYCLE   1            *
         *************************************************************
---------------------------------
CARTESIAN COORDINATES (ANGSTROEM)
---------------------------------
  C     -6.404600    1.203100    0.642100
  C     -5.249700    0.467400    0.072200
  C     -5.283900   -0.606000   -0.789200
  N     -4.107500   -1.101700   -1.172400
  C     -3.101800   -0.472600   -0.653300
  N     -1.841600   -0.771600   -0.880300
  N     -0.940700   -0.064000   -0.284700
  C      0.336000   -0.364300   -0.527600
  C      0.929700   -1.318700   -1.348800
  C      2.312700   -1.282900   -1.308800
  C      2.817800   -0.307900   -0.460800
  C      4.184500   -0.019400   -0.198300
  C      4.708600    0.935600    0.641100
  C      6.112300    0.942600    0.658700
  C      6.653500    0.000200   -0.161300
  S      5.458200   -0.920800   -0.976600
  S      1.544700    0.587900    0.303000
  S     -3.625900    0.894800    0.437500
  H     -7.336800    0.758100    0.302100
  H     -6.378200    2.248900    0.336300
  H     -6.373800    1.177100    1.731000
  H     -6.185000   -1.059100   -1.164300
  H      0.337900   -1.994900   -1.938800
  H      2.954600   -1.938300   -1.871600
  H      4.090500    1.600000    1.217500
  H      6.699100    1.618200    1.254600
  H      7.689100   -0.211600   -0.338500

----------------------------
CARTESIAN COORDINATES (A.U.)
----------------------------
  NO LB      ZA    FRAG     MASS         X           Y           Z
   0 C     6.0000    0    12.011  -12.102940    2.273530    1.213393
   1 C     6.0000    0    12.011   -9.920495    0.883258    0.136438
   2 C     6.0000    0    12.011   -9.985124   -1.145174   -1.491372
   3 N     7.0000    0    14.007   -7.762050   -2.081911   -2.215515
   4 C     6.0000    0    12.011   -5.861553   -0.893085   -1.234558
   5 N     7.0000    0    14.007   -3.480120   -1.458113   -1.663526
   6 N     7.0000    0    14.007   -1.777665   -0.120942   -0.538005
   7 C     6.0000    0    12.011    0.634948   -0.688427   -0.997020
   8 C     6.0000    0    12.011    1.756878   -2.491982   -2.548863
   9 C     6.0000    0    12.011    4.370370   -2.424330   -2.473274
  10 C     6.0000    0    12.011    5.324870   -0.581847   -0.870786
  11 C     6.0000    0    12.011    7.907559   -0.036661   -0.374733
  12 C     6.0000    0    12.011    8.897964    1.768028    1.211503
  13 C     6.0000    0    12.011   11.550573    1.781256    1.244763
  14 C     6.0000    0    12.011   12.573293    0.000378   -0.304813
  15 S    16.0000    0    32.060   10.314503   -1.740060   -1.845507
  16 S    16.0000    0    32.060    2.919060    1.110970    0.572587
  17 S    16.0000    0    32.060   -6.851958    1.690927    0.826755
  18 H     1.0000    0     1.008  -13.864543    1.432601    0.570886
  19 H     1.0000    0     1.008  -12.053051    4.249805    0.635515
  20 H     1.0000    0     1.008  -12.044736    2.224397    3.271116
  21 H     1.0000    0     1.008  -11.687956   -2.001409   -2.200208
  22 H     1.0000    0     1.008    0.638538   -3.769815   -3.663801
  23 H     1.0000    0     1.008    5.583385   -3.662856   -3.536811
  24 H     1.0000    0     1.008    7.729925    3.023562    2.300742
  25 H     1.0000    0     1.008   12.659464    3.057955    2.370850
  26 H     1.0000    0     1.008   14.530293   -0.399866   -0.639672

--------------------------------
INTERNAL COORDINATES (ANGSTROEM)
--------------------------------
 C      0   0   0     0.000000000000     0.00000000     0.00000000
 C      1   0   0     1.483183909702     0.00000000     0.00000000
 C      2   1   0     1.376723341852   127.43156027     0.00000000
 N      3   2   1     1.332845711251   116.61117704   179.76970621
 C      4   3   2     1.294860652734   112.92782957     0.08171976
 N      5   4   3     1.314927389630   124.37988595   180.12675332
 N      6   5   4     1.291145975481   117.67518377   180.55911071
 C      7   6   5     1.333845339610   117.41740699   180.56349239
 C      8   7   6     1.392023164319   132.06849354     1.21877910
 C      9   8   7     1.384041415565   113.04142654   179.63420699
 C     10   9   8     1.387391440798   113.55524179     0.06135814
 C     11  10   9     1.421269640146   127.27388723   179.85940227
 C     12  11  10     1.375244767305   128.32732177   180.34206345
 C     13  12  11     1.403827785022   113.08996284   179.96288894
 C     14  13  12     1.361401924488   112.73640443     0.00000000
 S     15  14  13     1.715137656283   112.39479476     0.00000000
 S     11  10   9     1.733964154762   111.40729683   359.89184312
 S      2   1   3     1.718383336162   122.05595362   179.82520765
 H      1   2   3     1.087484179195   110.14324702     1.44825620
 H      1   2   3     1.089912033148   110.44347942   240.98748219
 H      1   2   3     1.089645745185   110.49542295   122.03466782
 H      3   2   1     1.076095177017   124.55463072   359.80158249
 H      9   8   7     1.074976129968   121.35009188   359.70727563
 H     10   9   8     1.076256758399   124.40963219   180.01967055
 H     13  12  11     1.075040431798   122.50085991     0.00000000
 H     14  13  12     1.075112277858   123.76832564   180.01509630
 H     15  14  13     1.071786564573   128.35162750   179.98044240

---------------------------
INTERNAL COORDINATES (A.U.)
---------------------------
 C      0   0   0     0.000000000000     0.00000000     0.00000000
 C      1   0   0     2.802811395576     0.00000000     0.00000000
 C      2   1   0     2.601630078277   127.43156027     0.00000000
 N      3   2   1     2.518713373036   116.61117704   179.76970621
 C      4   3   2     2.446932015259   112.92782957     0.08171976
 N      5   4   3     2.484852652393   124.37988595   180.12675332
 N      6   5   4     2.439912292573   117.67518377   180.55911071
 C      7   6   5     2.520602396871   117.41740699   180.56349239
 C      8   7   6     2.630542552637   132.06849354     1.21877910
 C      9   8   7     2.615459233423   113.04142654   179.63420699
 C     10   9   8     2.621789863655   113.55524179     0.06135814
 C     11  10   9     2.685810382332   127.27388723   179.85940227
 C     12  11  10     2.598835977315   128.32732177   180.34206345
 C     13  12  11     2.652850052881   113.08996284   179.96288894
 C     14  13  12     2.572676795476   112.73640443     0.00000000
 S     15  14  13     3.241140452350   112.39479476     0.00000000
 S     11  10   9     3.276717378537   111.40729683   359.89184312
 S      2   1   3     3.247273898441   122.05595362   179.82520765
 H      1   2   3     2.055047273651   110.14324702     1.44825620
 H      1   2   3     2.059635252714   110.44347942   240.98748219
 H      1   2   3     2.059132041392   110.49542295   122.03466782
 H      3   2   1     2.033525178596   124.55463072   359.80158249
 H      9   8   7     2.031410486141   121.35009188   359.70727563
 H     10   9   8     2.033830523156   124.40963219   180.01967055
 H     13  12  11     2.031531998990   122.50085991     0.00000000
 H     14  13  12     2.031667768367   123.76832564   180.01509630
 H     15  14  13     2.025383081060   128.35162750   179.98044240

---------------------
BASIS SET INFORMATION
---------------------
There are 4 groups of distinct atoms

 Group   1 Type C   : 19s6p3d2f contracted to 5s4p3d2f pattern {88111/3111/111/11}
 Group   2 Type N   : 19s6p3d2f contracted to 5s4p3d2f pattern {88111/3111/111/11}
 Group   3 Type S   : 42s17p3d2f contracted to 6s5p3d2f pattern {131313111/77111/111/11}
 Group   4 Type H   : 5s2p1d contracted to 3s2p1d pattern {311/11/1}

Atom   0C    basis set group =>   1
Atom   1C    basis set group =>   1
Atom   2C    basis set group =>   1
Atom   3N    basis set group =>   2
Atom   4C    basis set group =>   1
Atom   5N    basis set group =>   2
Atom   6N    basis set group =>   2
Atom   7C    basis set group =>   1
Atom   8C    basis set group =>   1
Atom   9C    basis set group =>   1
Atom  10C    basis set group =>   1
Atom  11C    basis set group =>   1
Atom  12C    basis set group =>   1
Atom  13C    basis set group =>   1
Atom  14C    basis set group =>   1
Atom  15S    basis set group =>   3
Atom  16S    basis set group =>   3
Atom  17S    basis set group =>   3
Atom  18H    basis set group =>   4
Atom  19H    basis set group =>   4
Atom  20H    basis set group =>   4
Atom  21H    basis set group =>   4
Atom  22H    basis set group =>   4
Atom  23H    basis set group =>   4
Atom  24H    basis set group =>   4
Atom  25H    basis set group =>   4
Atom  26H    basis set group =>   4
---------------------------------
AUXILIARY/J BASIS SET INFORMATION
---------------------------------
There are 4 groups of distinct atoms

 Group   1 Type C   : 10s7p5d2f1g contracted to 10s7p5d2f1g pattern {1111111111/1111111/11111/11/1}
 Group   2 Type N   : 10s7p5d2f1g contracted to 10s7p5d2f1g pattern {1111111111/1111111/11111/11/1}
 Group   3 Type S   : 13s11p9d3f1g contracted to 13s11p9d3f1g pattern {1111111111111/11111111111/111111111/111/1}
 Group   4 Type H   : 4s3p2d1f contracted to 4s3p2d1f pattern {1111/111/11/1}

Atom   0C    basis set group =>   1
Atom   1C    basis set group =>   1
Atom   2C    basis set group =>   1
Atom   3N    basis set group =>   2
Atom   4C    basis set group =>   1
Atom   5N    basis set group =>   2
Atom   6N    basis set group =>   2
Atom   7C    basis set group =>   1
Atom   8C    basis set group =>   1
Atom   9C    basis set group =>   1
Atom  10C    basis set group =>   1
Atom  11C    basis set group =>   1
Atom  12C    basis set group =>   1
Atom  13C    basis set group =>   1
Atom  14C    basis set group =>   1
Atom  15S    basis set group =>   3
Atom  16S    basis set group =>   3
Atom  17S    basis set group =>   3
Atom  18H    basis set group =>   4
Atom  19H    basis set group =>   4
Atom  20H    basis set group =>   4
Atom  21H    basis set group =>   4
Atom  22H    basis set group =>   4
Atom  23H    basis set group =>   4
Atom  24H    basis set group =>   4
Atom  25H    basis set group =>   4
Atom  26H    basis set group =>   4
---------------------------------
AUXILIARY/C BASIS SET INFORMATION
---------------------------------
There are 4 groups of distinct atoms

 Group   1 Type C   : 9s7p6d4f2g contracted to 9s7p6d4f2g pattern {111111111/1111111/111111/1111/11}
 Group   2 Type N   : 9s7p6d4f2g contracted to 9s7p6d4f2g pattern {111111111/1111111/111111/1111/11}
 Group   3 Type S   : 11s9p8d6f3g contracted to 11s9p8d6f3g pattern {11111111111/111111111/11111111/111111/111}
 Group   4 Type H   : 4s3p2d1f contracted to 4s3p2d1f pattern {1111/111/11/1}

Atom   0C    basis set group =>   1
Atom   1C    basis set group =>   1
Atom   2C    basis set group =>   1
Atom   3N    basis set group =>   2
Atom   4C    basis set group =>   1
Atom   5N    basis set group =>   2
Atom   6N    basis set group =>   2
Atom   7C    basis set group =>   1
Atom   8C    basis set group =>   1
Atom   9C    basis set group =>   1
Atom  10C    basis set group =>   1
Atom  11C    basis set group =>   1
Atom  12C    basis set group =>   1
Atom  13C    basis set group =>   1
Atom  14C    basis set group =>   1
Atom  15S    basis set group =>   3
Atom  16S    basis set group =>   3
Atom  17S    basis set group =>   3
Atom  18H    basis set group =>   4
Atom  19H    basis set group =>   4
Atom  20H    basis set group =>   4
Atom  21H    basis set group =>   4
Atom  22H    basis set group =>   4
Atom  23H    basis set group =>   4
Atom  24H    basis set group =>   4
Atom  25H    basis set group =>   4
Atom  26H    basis set group =>   4


           ************************************************************
           *        Program running with 4 parallel MPI-processes     *
           *              working on a common directory               *
           ************************************************************
------------------------------------------------------------------------------
                           ORCA GTO INTEGRAL CALCULATION
                           -- RI-GTO INTEGRALS CHOSEN --
------------------------------------------------------------------------------
------------------------------------------------------------------------------
                   ___                                                        
                  /   \      - P O W E R E D   B Y -                         
                 /     \                                                     
                 |  |  |   _    _      __       _____    __    __             
                 |  |  |  | |  | |    /  \     |  _  \  |  |  /  |          
                  \  \/   | |  | |   /    \    | | | |  |  | /  /          
                 / \  \   | |__| |  /  /\  \   | |_| |  |  |/  /          
                |  |  |   |  __  | /  /__\  \  |    /   |      \           
                |  |  |   | |  | | |   __   |  |    \   |  |\   \          
                \     /   | |  | | |  |  |  |  | |\  \  |  | \   \       
                 \___/    |_|  |_| |__|  |__|  |_| \__\ |__|  \__/        
                                                                              
                      - O R C A' S   B I G   F R I E N D -                    
                                      &                                       
                       - I N T E G R A L  F E E D E R -                       
                                                                              
 v1 FN, 2020, v2 2021                                                         
------------------------------------------------------------------------------


Reading SHARK input file optpbed3-wb2plyp-train-15.SHARKINP.tmp ... ok
----------------------
SHARK INTEGRAL PACKAGE
----------------------

Number of atoms                             ...     27
Number of basis functions                   ...   1131
Number of shells                            ...    447
Maximum angular momentum                    ...      3
Integral batch strategy                     ... SHARK/LIBINT Hybrid
RI-J (if used) integral strategy            ... SPLIT-RIJ (Revised 2003 algorithm where possible)
Printlevel                                  ...      1
Contraction scheme used                     ... PARTIAL GENERAL contraction
Coulomb Range Separation                    ... NOT USED
Exchange Range Separation                   ... NOT USED
Finite Nucleus Model                        ... NOT USED
Auxiliary Coulomb fitting basis             ... AVAILABLE
   # of basis functions in Aux-J            ...   1818
   # of shells in Aux-J                     ...    576
   Maximum angular momentum in Aux-J        ...      4
Auxiliary J/K fitting basis                 ... NOT available
Auxiliary Correlation fitting basis         ... AVAILABLE
   # of basis functions in Aux-C            ...   2301
   # of shells in Aux-C                     ...    621
   Maximum angular momentum in Aux-C        ...      4
Auxiliary 'external' fitting basis          ... NOT available
Integral threshold                          ...     2.500000e-11
Primitive cut-off                           ...     2.500000e-12
Primitive pair pre-selection threshold      ...     2.500000e-12

Calculating pre-screening integrals         ... done (  0.2 sec) Dimension = 447
Calculating pre-screening integrals (ORCA)  ... done (  0.8 sec) Dimension = 312
Organizing shell pair data                  ... done (  0.7 sec)
Shell pair information
Total number of shell pairs                 ...    100128
Shell pairs after pre-screening             ...     56840
Total number of primitive shell pairs       ...    122832
Primitive shell pairs kept                  ...     64064
          la=0 lb=0:  12415 shell pairs
          la=1 lb=0:  15086 shell pairs
          la=1 lb=1:   4113 shell pairs
          la=2 lb=0:   9107 shell pairs
          la=2 lb=1:   4789 shell pairs
          la=2 lb=2:   1452 shell pairs
          la=3 lb=0:   5062 shell pairs
          la=3 lb=1:   2712 shell pairs
          la=3 lb=2:   1627 shell pairs
          la=3 lb=3:    477 shell pairs

Calculating one electron integrals          ... done (  0.2 sec)
Calculating RI/J V-Matrix + Cholesky decomp.... done (  0.3 sec)
Calculating RI/C V-Matrix + Cholesky decomp.... done (  0.5 sec)
Calculating Nuclear repulsion               ... done (  0.0 sec) ENN=   1485.586984744147 Eh

SHARK setup successfully completed in   4.6 seconds

Maximum memory used throughout the entire GTOINT-calculation: 92.0 MB


           ************************************************************
           *        Program running with 4 parallel MPI-processes     *
           *              working on a common directory               *
           ************************************************************
-------------------------------------------------------------------------------
                                 ORCA SCF
-------------------------------------------------------------------------------

------------
SCF SETTINGS
------------
Hamiltonian:
 Density Functional     Method          .... DFT(GTOs)
 Exchange Functional    Exchange        .... PBE
   PBE kappa parameter   XKappa         ....  0.804000
   PBE mue parameter    XMuePBE         ....  0.219520
 Correlation Functional Correlation     .... PBE
   PBE beta parameter  CBetaPBE         ....  0.066725
 LDA part of GGA corr.  LDAOpt          .... PW91-LDA
 Gradients option       PostSCFGGA      .... off
 Hybrid DFT is turned on
   Fraction HF Exchange ScalHFX         ....  0.250000
   Scaling of DF-GGA-X  ScalDFX         ....  0.750000
   Scaling of DF-GGA-C  ScalDFC         ....  1.000000
   Scaling of DF-LDA-C  ScalLDAC        ....  1.000000
   Perturbative correction              ....  0.000000
   Density functional embedding theory  .... OFF
   NL short-range parameter             ....  6.900000
 RI-approximation to the Coulomb term is turned on
   Number of AuxJ basis functions       .... 1818
   RIJ-COSX (HFX calculated with COS-X)).... on


General Settings:
 Integral files         IntName         .... optpbed3-wb2plyp-train-15
 Hartree-Fock type      HFTyp           .... RHF
 Total Charge           Charge          ....    0
 Multiplicity           Mult            ....    1
 Number of Electrons    NEL             ....  150
 Basis Dimension        Dim             ....  966
 Nuclear Repulsion      ENuc            ....   1485.5869847441 Eh

Convergence Acceleration:
 DIIS                   CNVDIIS         .... on
   Start iteration      DIISMaxIt       ....    12
   Startup error        DIISStart       ....  0.200000
   # of expansion vecs  DIISMaxEq       ....     5
   Bias factor          DIISBfac        ....   1.050
   Max. coefficient     DIISMaxC        ....  10.000
 Trust-Rad. Augm. Hess. CNVTRAH         .... auto
   Auto Start mean grad. ratio tolernc. ....  1.125000
   Auto Start start iteration           ....    20
   Auto Start num. interpolation iter.  ....    10
   Max. Number of Micro iterations      ....    16
   Max. Number of Macro iterations      .... Maxiter - #DIIS iter
   Number of Davidson start vectors     ....     2
   Converg. threshold I  (grad. norm)   ....   1.000e-05
   Converg. threshold II (energy diff.) ....   1.000e-08
   Grad. Scal. Fac. for Micro threshold ....   0.100
   Minimum threshold for Micro iter.    ....   0.010
   NR start threshold (gradient norm)   ....   0.001
   Initial trust radius                 ....   0.400
   Minimum AH scaling param. (alpha)    ....   1.000
   Maximum AH scaling param. (alpha)    .... 1000.000
   Orbital update algorithm             .... Taylor
   White noise on init. David. guess    .... on
   Maximum white noise                  ....   0.010
   Quad. conv. algorithm                .... NR
 SOSCF                  CNVSOSCF        .... on
   Start iteration      SOSCFMaxIt      ....   150
   Startup grad/error   SOSCFStart      ....  0.003300
 Level Shifting         CNVShift        .... on
   Level shift para.    LevelShift      ....    0.2500
   Turn off err/grad.   ShiftErr        ....    0.0010
 Zerner damping         CNVZerner       .... off
 Static damping         CNVDamp         .... on
   Fraction old density DampFac         ....    0.7000
   Max. Damping (<1)    DampMax         ....    0.9800
   Min. Damping (>=0)   DampMin         ....    0.0000
   Turn off err/grad.   DampErr         ....    0.1000
 Fernandez-Rico         CNVRico         .... off

SCF Procedure:
 Maximum # iterations   MaxIter         ....   125
 SCF integral mode      SCFMode         .... Direct
   Integral package                     .... SHARK and LIBINT hybrid scheme
 Reset frequency        DirectResetFreq ....    20
 Integral Threshold     Thresh          ....  2.500e-11 Eh
 Primitive CutOff       TCut            ....  2.500e-12 Eh

Convergence Tolerance:
 Convergence Check Mode ConvCheckMode   .... Total+1el-Energy
 Convergence forced     ConvForced      .... 0
 Energy Change          TolE            ....  1.000e-08 Eh
 1-El. energy change                    ....  1.000e-05 Eh
 Orbital Gradient       TolG            ....  1.000e-05
 Orbital Rotation angle TolX            ....  1.000e-05
 DIIS Error             TolErr          ....  5.000e-07


Diagonalization of the overlap matrix:
Smallest eigenvalue                        ... 1.484e-06
Time for diagonalization                   ...    0.389 sec
Threshold for overlap eigenvalues          ... 1.000e-08
Number of eigenvalues below threshold      ... 0
Time for construction of square roots      ...    0.222 sec
Total time needed                          ...    0.616 sec

Time for model grid setup =    0.574 sec

------------------------------
INITIAL GUESS: MODEL POTENTIAL
------------------------------
Loading Hartree-Fock densities                     ... done
Calculating cut-offs                               ... done
Initializing the effective Hamiltonian             ... done
Setting up the integral package (SHARK)            ... done
Starting the Coulomb interaction                   ... done (   1.8 sec)
Reading the grid                                   ... done
Mapping shells                                     ... done
Starting the XC term evaluation                    ... done (   1.5 sec)
  promolecular density results
     # of electrons  =    149.995041599
     EX              =   -158.427558112
     EC              =     -5.320251645
     EX+EC           =   -163.747809757
Transforming the Hamiltonian                       ... done (   0.2 sec)
Diagonalizing the Hamiltonian                      ... done (   0.4 sec)
Back transforming the eigenvectors                 ... done (   0.1 sec)
Now organizing SCF variables                       ... done
                      ------------------
                      INITIAL GUESS DONE (   4.6 sec)
                      ------------------
-------------------
DFT GRID GENERATION
-------------------

General Integration Accuracy     IntAcc      ... 4.388
Radial Grid Type                 RadialGrid  ... OptM3 with GC (2021)
Angular Grid (max. ang.)         AngularGrid ... 4 (Lebedev-302)
Angular grid pruning method      GridPruning ... 4 (adaptive)
Weight generation scheme         WeightScheme... Becke
Basis function cutoff            BFCut       ... 1.0000e-11
Integration weight cutoff        WCut        ... 1.0000e-14
Angular grids for H and He will be reduced by one unit
Partially contracted basis set               ... off
Rotationally invariant grid construction     ... off

Total number of grid points                  ...   145831
Total number of batches                      ...     2293
Average number of points per batch           ...       63
Average number of grid points per atom       ...     5401
Time for grid setup =    1.911 sec

--------------------
COSX GRID GENERATION
--------------------

GRIDX 1
-------
General Integration Accuracy     IntAcc      ... 3.816
Radial Grid Type                 RadialGrid  ... OptM3 with GC (2021)
Angular Grid (max. ang.)         AngularGrid ... 1 (Lebedev-50)
Angular grid pruning method      GridPruning ... 4 (adaptive)
Weight generation scheme         WeightScheme... Becke
Basis function cutoff            BFCut       ... 1.0000e-11
Integration weight cutoff        WCut        ... 1.0000e-14
Angular grids for H and He will be reduced by one unit
Partially contracted basis set               ... on
Rotationally invariant grid construction     ... off

Total number of grid points                  ...    18267
Total number of batches                      ...      301
Average number of points per batch           ...       60
Average number of grid points per atom       ...      677
UseSFitting                                  ... on

GRIDX 2
-------
General Integration Accuracy     IntAcc      ... 4.020
Radial Grid Type                 RadialGrid  ... OptM3 with GC (2021)
Angular Grid (max. ang.)         AngularGrid ... 2 (Lebedev-110)
Angular grid pruning method      GridPruning ... 4 (adaptive)
Weight generation scheme         WeightScheme... Becke
Basis function cutoff            BFCut       ... 1.0000e-11
Integration weight cutoff        WCut        ... 1.0000e-14
Angular grids for H and He will be reduced by one unit
Partially contracted basis set               ... on
Rotationally invariant grid construction     ... off

Total number of grid points                  ...    44672
Total number of batches                      ...      713
Average number of points per batch           ...       62
Average number of grid points per atom       ...     1655
UseSFitting                                  ... on

GRIDX 3
-------
General Integration Accuracy     IntAcc      ... 4.338
Radial Grid Type                 RadialGrid  ... OptM3 with GC (2021)
Angular Grid (max. ang.)         AngularGrid ... 3 (Lebedev-194)
Angular grid pruning method      GridPruning ... 4 (adaptive)
Weight generation scheme         WeightScheme... Becke
Basis function cutoff            BFCut       ... 1.0000e-11
Integration weight cutoff        WCut        ... 1.0000e-14
Angular grids for H and He will be reduced by one unit
Partially contracted basis set               ... on
Rotationally invariant grid construction     ... off

Total number of grid points                  ...    98478
Total number of batches                      ...     1551
Average number of points per batch           ...       63
Average number of grid points per atom       ...     3647
UseSFitting                                  ... on

Time for X-Grid setup             =    5.067 sec


--------------------
CPCM SOLVATION MODEL
--------------------
CPCM parameters:
  Epsilon                                         ...      46.8260
  Refrac                                          ...       1.4170
  Rsolv                                           ...       1.3000
  Surface type                                    ... GAUSSIAN VDW
  Epsilon function type                           ...         CPCM
Solvent:                                     ... DIMETHYLSULFOXIDE
SMD-CDS solvent descriptors:
  Soln                                       ...    1.4170
  Soln25                                     ...    1.4773
  Sola                                       ...    0.0000
  Solb                                       ...    0.8800
  Solg                                       ...   61.7800
  Solc                                       ...    0.0000
  Solh                                       ...    0.0000
Radii:
 Radius for C  used is    3.4960 Bohr (=   1.8500 Ang.)
 Radius for N  used is    3.5716 Bohr (=   1.8900 Ang.)
 Radius for S  used is    4.7054 Bohr (=   2.4900 Ang.)
 Radius for H  used is    2.2677 Bohr (=   1.2000 Ang.)
Calculating surface                               ...        done! (  0.0s)
GEPOL surface points                              ...         1465
GEPOL Volume                                      ...    2155.4536
GEPOL Surface-area                                ...    1112.2083
Calculating surface distance matrix               ...        done! (  0.0s)
Performing Cholesky decomposition & store         ...        done! (  0.1s)
Overall time for CPCM initialization              ...                 0.2s
 re-compute Schwartz prescreening matrix in partically contracted basis (1) ...done (   0.239 sec)
--------------
SCF ITERATIONS
--------------
ITER       Energy         Delta-E        Max-DP      RMS-DP      [F,P]     Damp
               ***  Starting incremental Fock matrix formation  ***
  0  -1820.1417140603   0.000000000000 0.12114189  0.00078492  0.2224262 0.7000
  1  -1820.3615635979  -0.219849537608 0.08399561  0.00056551  0.0990151 0.7000
                               ***Turning on DIIS***
  2  -1820.4480408888  -0.086477290890 0.16945408  0.00114149  0.0388917 0.0000
  3  -1820.5640310404  -0.115990151636 0.02581703  0.00030111  0.0547079 0.0000
  4  -1820.6054556710  -0.041424630569 0.01489012  0.00013108  0.0139868 0.0000
  5  -1820.6076463401  -0.002190669138 0.00688635  0.00004525  0.0098114 0.0000
                      *** Initiating the SOSCF procedure ***
                           *** Shutting down DIIS ***
                      *** Re-Reading the Fockian *** 
                      *** Removing any level shift *** 
ITER      Energy       Delta-E        Grad      Rot      Max-DP    RMS-DP
  6  -1820.60799292  -0.0003465842  0.000532  0.000532  0.002328  0.000021
               *** Restarting incremental Fock matrix formation ***
  7  -1820.60802248  -0.0000295558  0.000334  0.002466  0.015190  0.000171
  8  -1820.60803201  -0.0000095296  0.000269  0.001465  0.006414  0.000076
  9  -1820.60803376  -0.0000017482  0.000239  0.000558  0.005938  0.000067
 10  -1820.60803568  -0.0000019250  0.000048  0.000324  0.001921  0.000022
 11  -1820.60803577  -0.0000000833  0.000044  0.000250  0.001293  0.000016
 12  -1820.60803599  -0.0000002267  0.000012  0.000063  0.001815  0.000012
 13  -1820.60803601  -0.0000000151  0.000011  0.000039  0.001537  0.000009
 14  -1820.60803603  -0.0000000213  0.000004  0.000014  0.003765  0.000018
 15  -1820.60803601   0.0000000201  0.000005  0.000009  0.001567  0.000010
                  ***Gradient check signals convergence***
              ***Rediagonalizing the Fockian in SOSCF/NRSCF***

               *****************************************************
               *                     SUCCESS                       *
               *           SCF CONVERGED AFTER  16 CYCLES          *
               *****************************************************

Old exchange energy                            =    -40.066059326 Eh
New exchange energy                            =    -40.065954037 Eh
Exchange energy change after final integration =      0.000105289 Eh
Total energy after final integration           =  -1820.607930726 Eh
Final COS-X integration done in                =    99.319 sec

SMD CDS free energy correction energy :                 0.54159     Kcal/mol
Total Energy after SMD CDS correction =             -1820.607067649 Eh

----------------
TOTAL SCF ENERGY
----------------

Total Energy       :        -1820.60706765 Eh          -49541.23694 eV

Components:
Nuclear Repulsion  :         1485.58698474 Eh           40424.87702 eV
Electronic Energy  :        -3306.19405239 Eh          -89966.11395 eV
One Electron Energy:        -5452.35085146 Eh         -148366.00945 eV
Two Electron Energy:         2146.15679907 Eh           58399.89550 eV
Max COSX asymmetry :            0.00002151 Eh               0.00059 eV
CPCM Dielectric    :           -0.02270140 Eh              -0.61774 eV
SMD CDS (Gcds)     :            0.00086308 Eh               0.02349 eV

Virial components:
Potential Energy   :        -3634.68247777 Eh          -98904.73844 eV
Kinetic Energy     :         1814.07541012 Eh           49363.50150 eV
Virial Ratio       :            2.00360054


DFT components:
N(Alpha)           :       75.000006998201 electrons
N(Beta)            :       75.000006998201 electrons
N(Total)           :      150.000013996401 electrons
E(X)               :     -119.820707228283 Eh       
E(C)               :       -5.326001657914 Eh       
E(XC)              :     -125.146708886197 Eh       
DFET-embed. en.    :        0.000000000000 Eh       
CPCM Solvation Model Properties:
Surface-charge          :           -0.04253205
Charge-correction       :            0.00001399 Eh               0.00038 eV
Free-energy (cav+disp)  :            0.00086308 Eh               0.02349 eV

---------------
SCF CONVERGENCE
---------------

  Last Energy change         ...   -5.5593e-09  Tolerance :   1.0000e-08
  Last MAX-Density change    ...    5.7732e-15  Tolerance :   1.0000e-07
  Last RMS-Density change    ...    1.9357e-17  Tolerance :   5.0000e-09
  Last Orbital Gradient      ...    1.4406e-06  Tolerance :   1.0000e-05
  Last Orbital Rotation      ...    8.4178e-06  Tolerance :   1.0000e-05

             **** THE GBW FILE WAS UPDATED (optpbed3-wb2plyp-train-15.gbw) ****
             **** DENSITY optpbed3-wb2plyp-train-15.scfp WAS UPDATED ****
             **** ENERGY FILE WAS UPDATED (optpbed3-wb2plyp-train-15.en.tmp) ****
             **** THE GBW FILE WAS UPDATED (optpbed3-wb2plyp-train-15.gbw) ****
             **** DENSITY optpbed3-wb2plyp-train-15.scfp WAS UPDATED ****
----------------
ORBITAL ENERGIES
----------------

  NO   OCC          E(Eh)            E(eV) 
   0   2.0000     -89.096965     -2424.4517 
   1   2.0000     -89.092145     -2424.3205 
   2   2.0000     -89.086101     -2424.1561 
   3   2.0000     -14.449642      -393.1947 
   4   2.0000     -14.437889      -392.8749 
   5   2.0000     -14.397629      -391.7794 
   6   2.0000     -10.315698      -280.7044 
   7   2.0000     -10.296870      -280.1921 
   8   2.0000     -10.294495      -280.1275 
   9   2.0000     -10.279417      -279.7171 
  10   2.0000     -10.276555      -279.6393 
  11   2.0000     -10.263509      -279.2843 
  12   2.0000     -10.255295      -279.0608 
  13   2.0000     -10.249853      -278.9127 
  14   2.0000     -10.247481      -278.8481 
  15   2.0000     -10.241794      -278.6934 
  16   2.0000     -10.236819      -278.5580 
  17   2.0000     -10.224259      -278.2162 
  18   2.0000      -8.054158      -219.1648 
  19   2.0000      -8.049149      -219.0285 
  20   2.0000      -8.042606      -218.8504 
  21   2.0000      -5.990849      -163.0193 
  22   2.0000      -5.987521      -162.9287 
  23   2.0000      -5.985866      -162.8837 
  24   2.0000      -5.984803      -162.8548 
  25   2.0000      -5.982305      -162.7868 
  26   2.0000      -5.980087      -162.7264 
  27   2.0000      -5.978964      -162.6959 
  28   2.0000      -5.975982      -162.6147 
  29   2.0000      -5.973668      -162.5518 
  30   2.0000      -1.080694       -29.4072 
  31   2.0000      -1.007006       -27.4020 
  32   2.0000      -0.942162       -25.6375 
  33   2.0000      -0.918088       -24.9825 
  34   2.0000      -0.863675       -23.5018 
  35   2.0000      -0.841966       -22.9111 
  36   2.0000      -0.796841       -21.6831 
  37   2.0000      -0.782123       -21.2827 
  38   2.0000      -0.767748       -20.8915 
  39   2.0000      -0.754693       -20.5362 
  40   2.0000      -0.725813       -19.7504 
  41   2.0000      -0.696259       -18.9462 
  42   2.0000      -0.627451       -17.0738 
  43   2.0000      -0.627086       -17.0639 
  44   2.0000      -0.588246       -16.0070 
  45   2.0000      -0.581450       -15.8221 
  46   2.0000      -0.560570       -15.2539 
  47   2.0000      -0.550930       -14.9916 
  48   2.0000      -0.540963       -14.7203 
  49   2.0000      -0.508375       -13.8336 
  50   2.0000      -0.485224       -13.2036 
  51   2.0000      -0.482612       -13.1325 
  52   2.0000      -0.476805       -12.9745 
  53   2.0000      -0.452431       -12.3113 
  54   2.0000      -0.450265       -12.2523 
  55   2.0000      -0.434236       -11.8162 
  56   2.0000      -0.433252       -11.7894 
  57   2.0000      -0.423147       -11.5144 
  58   2.0000      -0.419728       -11.4214 
  59   2.0000      -0.419358       -11.4113 
  60   2.0000      -0.413155       -11.2425 
  61   2.0000      -0.397997       -10.8300 
  62   2.0000      -0.388446       -10.5701 
  63   2.0000      -0.383407       -10.4330 
  64   2.0000      -0.375372       -10.2144 
  65   2.0000      -0.367695       -10.0055 
  66   2.0000      -0.361384        -9.8338 
  67   2.0000      -0.312672        -8.5082 
  68   2.0000      -0.304124        -8.2756 
  69   2.0000      -0.301535        -8.2052 
  70   2.0000      -0.289859        -7.8875 
  71   2.0000      -0.277975        -7.5641 
  72   2.0000      -0.264719        -7.2034 
  73   2.0000      -0.260632        -7.0921 
  74   2.0000      -0.210788        -5.7358 
  75   0.0000      -0.117719        -3.2033 
  76   0.0000      -0.049682        -1.3519 
  77   0.0000      -0.006988        -0.1902 
  78   0.0000       0.000714         0.0194 
  79   0.0000       0.005464         0.1487 
  80   0.0000       0.006615         0.1800 
  81   0.0000       0.013707         0.3730 
  82   0.0000       0.018911         0.5146 
  83   0.0000       0.019974         0.5435 
  84   0.0000       0.021948         0.5972 
  85   0.0000       0.025859         0.7037 
  86   0.0000       0.029519         0.8033 
  87   0.0000       0.035331         0.9614 
  88   0.0000       0.035548         0.9673 
  89   0.0000       0.040612         1.1051 
  90   0.0000       0.041484         1.1288 
  91   0.0000       0.042955         1.1689 
  92   0.0000       0.046639         1.2691 
  93   0.0000       0.047251         1.2858 
  94   0.0000       0.056550         1.5388 
  95   0.0000       0.057048         1.5523 
  96   0.0000       0.059544         1.6203 
  97   0.0000       0.063011         1.7146 
  98   0.0000       0.063498         1.7279 
  99   0.0000       0.064751         1.7620 
 100   0.0000       0.068868         1.8740 
 101   0.0000       0.072858         1.9826 
 102   0.0000       0.077431         2.1070 
 103   0.0000       0.082904         2.2559 
 104   0.0000       0.083776         2.2797 
 105   0.0000       0.089249         2.4286 
 106   0.0000       0.092997         2.5306 
 107   0.0000       0.095346         2.5945 
 108   0.0000       0.099187         2.6990 
 109   0.0000       0.102809         2.7976 
 110   0.0000       0.106183         2.8894 
 111   0.0000       0.107109         2.9146 
 112   0.0000       0.113096         3.0775 
 113   0.0000       0.115154         3.1335 
 114   0.0000       0.116447         3.1687 
 115   0.0000       0.118340         3.2202 
 116   0.0000       0.118658         3.2288 
 117   0.0000       0.124559         3.3894 
 118   0.0000       0.130061         3.5391 
 119   0.0000       0.133428         3.6308 
 120   0.0000       0.133885         3.6432 
 121   0.0000       0.135082         3.6758 
 122   0.0000       0.137116         3.7311 
 123   0.0000       0.140651         3.8273 
 124   0.0000       0.144968         3.9448 
 125   0.0000       0.146180         3.9778 
 126   0.0000       0.149923         4.0796 
 127   0.0000       0.152022         4.1367 
 128   0.0000       0.153961         4.1895 
 129   0.0000       0.154925         4.2157 
 130   0.0000       0.156402         4.2559 
 131   0.0000       0.157448         4.2844 
 132   0.0000       0.164236         4.4691 
 133   0.0000       0.166753         4.5376 
 134   0.0000       0.168211         4.5772 
 135   0.0000       0.169578         4.6144 
 136   0.0000       0.170024         4.6266 
 137   0.0000       0.175180         4.7669 
 138   0.0000       0.176137         4.7929 
 139   0.0000       0.177767         4.8373 
 140   0.0000       0.186342         5.0706 
 141   0.0000       0.186662         5.0793 
 142   0.0000       0.189800         5.1647 
 143   0.0000       0.192624         5.2416 
 144   0.0000       0.196844         5.3564 
 145   0.0000       0.198388         5.3984 
 146   0.0000       0.199638         5.4324 
 147   0.0000       0.207748         5.6531 
 148   0.0000       0.208000         5.6600 
 149   0.0000       0.209761         5.7079 
 150   0.0000       0.212318         5.7775 
 151   0.0000       0.220099         5.9892 
 152   0.0000       0.222348         6.0504 
 153   0.0000       0.224002         6.0954 
 154   0.0000       0.225356         6.1322 
 155   0.0000       0.231807         6.3078 
 156   0.0000       0.233054         6.3417 
 157   0.0000       0.234243         6.3741 
 158   0.0000       0.244858         6.6629 
 159   0.0000       0.246638         6.7114 
 160   0.0000       0.248275         6.7559 
 161   0.0000       0.251175         6.8348 
 162   0.0000       0.254325         6.9205 
 163   0.0000       0.257532         7.0078 
 164   0.0000       0.261551         7.1172 
 165   0.0000       0.263027         7.1573 
 166   0.0000       0.264273         7.1912 
 167   0.0000       0.268621         7.3095 
 168   0.0000       0.269409         7.3310 
 169   0.0000       0.271887         7.3984 
 170   0.0000       0.278744         7.5850 
 171   0.0000       0.279197         7.5973 
 172   0.0000       0.280221         7.6252 
 173   0.0000       0.283186         7.7059 
 174   0.0000       0.287064         7.8114 
 175   0.0000       0.290568         7.9068 
 176   0.0000       0.293975         7.9995 
 177   0.0000       0.295659         8.0453 
 178   0.0000       0.299389         8.1468 
 179   0.0000       0.307867         8.3775 
 180   0.0000       0.311299         8.4709 
 181   0.0000       0.316342         8.6081 
 182   0.0000       0.318984         8.6800 
 183   0.0000       0.319498         8.6940 
 184   0.0000       0.323384         8.7997 
 185   0.0000       0.324145         8.8204 
 186   0.0000       0.332910         9.0590 
 187   0.0000       0.338657         9.2153 
 188   0.0000       0.340526         9.2662 
 189   0.0000       0.345203         9.3935 
 190   0.0000       0.346850         9.4383 
 191   0.0000       0.347863         9.4658 
 192   0.0000       0.352160         9.5828 
 193   0.0000       0.356360         9.6971 
 194   0.0000       0.358642         9.7591 
 195   0.0000       0.359862         9.7924 
 196   0.0000       0.364365         9.9149 
 197   0.0000       0.366855         9.9826 
 198   0.0000       0.368285        10.0215 
 199   0.0000       0.369692        10.0598 
 200   0.0000       0.373448        10.1620 
 201   0.0000       0.378382        10.2963 
 202   0.0000       0.379256        10.3201 
 203   0.0000       0.384383        10.4596 
 204   0.0000       0.387895        10.5552 
 205   0.0000       0.388823        10.5804 
 206   0.0000       0.393182        10.6990 
 207   0.0000       0.397104        10.8057 
 208   0.0000       0.399091        10.8598 
 209   0.0000       0.403030        10.9670 
 210   0.0000       0.407372        11.0852 
 211   0.0000       0.410681        11.1752 
 212   0.0000       0.414695        11.2844 
 213   0.0000       0.415448        11.3049 
 214   0.0000       0.416793        11.3415 
 215   0.0000       0.420711        11.4481 
 216   0.0000       0.422768        11.5041 
 217   0.0000       0.425537        11.5795 
 218   0.0000       0.428548        11.6614 
 219   0.0000       0.434438        11.8216 
 220   0.0000       0.437759        11.9120 
 221   0.0000       0.443750        12.0751 
 222   0.0000       0.445273        12.1165 
 223   0.0000       0.449266        12.2251 
 224   0.0000       0.450555        12.2602 
 225   0.0000       0.453658        12.3447 
 226   0.0000       0.455102        12.3840 
 227   0.0000       0.457015        12.4360 
 228   0.0000       0.461112        12.5475 
 229   0.0000       0.462728        12.5915 
 230   0.0000       0.467721        12.7273 
 231   0.0000       0.469011        12.7624 
 232   0.0000       0.473929        12.8963 
 233   0.0000       0.476252        12.9595 
[...]
Building the initial guess                     ... o.k.
Number of trial vectors determined             ...     70


                       ****Iteration    0****

   Memory handling for direct AO based CIS:
   Memory per vector needed      ...    53 MB
   Memory needed                 ...  1601 MB
   Memory available              ...  4000 MB
   Number of vectors per batch   ...    74
   Number of batches             ...     1
   Time for densities:            0.583
   Time for RI-J (Direct):       16.002
   Time for K (COSX):            95.620
   Time for XC-Integration:      34.983
   Time for LR-CPCM terms:       15.910
   Time for Sigma-Completion:     0.460
   Size of expansion space: 30
   Lowest Energy          :     0.126753387561
   Maximum Energy change  :     0.241411511173 (vector 9)
   Maximum residual norm  :     0.016008783574

                       ****Iteration    1****
   Time for densities:            0.205
   Time for RI-J (Direct):        9.153
   Time for K (COSX):            39.223
   Time for XC-Integration:      12.260
   Time for LR-CPCM terms:        7.266
   Time for Sigma-Completion:     0.158
   Size of expansion space: 40
   Lowest Energy          :     0.110135904520
   Maximum Energy change  :     0.036751919866 (vector 1)
   Maximum residual norm  :     0.003282554208

                       ****Iteration    2****
   Time for densities:            0.210
   Time for RI-J (Direct):        9.165
   Time for K (COSX):            39.335
   Time for XC-Integration:      12.427
   Time for LR-CPCM terms:        7.281
   Time for Sigma-Completion:     0.146
   Size of expansion space: 50
   Lowest Energy          :     0.108233545920
   Maximum Energy change  :     0.009384106135 (vector 6)
   Maximum residual norm  :     0.000781502387

                       ****Iteration    3****
   Time for densities:            0.210
   Time for RI-J (Direct):        9.252
   Time for K (COSX):            39.327
   Time for XC-Integration:      12.548
   Time for LR-CPCM terms:        7.274
   Time for Sigma-Completion:     0.155
   Size of expansion space: 60
   Lowest Energy          :     0.108121996649
   Maximum Energy change  :     0.004397097857 (vector 9)
   Maximum residual norm  :     0.001253304890

                       ****Iteration    4****
   Time for densities:            0.204
   Time for RI-J (Direct):        9.328
   Time for K (COSX):            39.388
   Time for XC-Integration:      12.497
   Time for LR-CPCM terms:        7.330
   Time for Sigma-Completion:     0.156
   Size of expansion space: 70
   Lowest Energy          :     0.108111202537
   Maximum Energy change  :     0.005340138423 (vector 9)
   Maximum residual norm  :     0.001443280038
   Rebuilding the expansion space

                       ****Iteration    5****
   Time for densities:            0.401
   Time for RI-J (Direct):       12.537
   Time for K (COSX):            67.441
   Time for XC-Integration:      24.801
   Time for LR-CPCM terms:       11.711
   Time for Sigma-Completion:     0.344
   Size of expansion space: 20
   Lowest Energy          :     0.108110411521
   Maximum Energy change  :     0.002367391536 (vector 9)
   Maximum residual norm  :     0.000542658563

                       ****Iteration    6****
   Time for densities:            0.210
   Time for RI-J (Direct):        9.279
   Time for K (COSX):            39.177
   Time for XC-Integration:      13.012
   Time for LR-CPCM terms:        7.315
   Time for Sigma-Completion:     0.151
   Size of expansion space: 30
   Lowest Energy          :     0.108110330705
   Maximum Energy change  :     0.001072580300 (vector 9)
   Maximum residual norm  :     0.000250158269

                       ****Iteration    7****
   Time for densities:            0.205
   Time for RI-J (Direct):        9.210
   Time for K (COSX):            39.081
   Time for XC-Integration:      12.974
   Time for LR-CPCM terms:        7.392
   Time for Sigma-Completion:     0.148
   Size of expansion space: 40
   Lowest Energy          :     0.108110322342
   Maximum Energy change  :     0.003003388506 (vector 8)
   Maximum residual norm  :     0.001805465341

                       ****Iteration    8****
   Time for densities:            0.211
   Time for RI-J (Direct):        9.200
   Time for K (COSX):            39.303
   Time for XC-Integration:      13.062
   Time for LR-CPCM terms:        7.349
   Time for Sigma-Completion:     0.147
   Size of expansion space: 50
   Lowest Energy          :     0.108110321667
   Maximum Energy change  :     0.003161739051 (vector 7)
   Maximum residual norm  :     0.001946213777

                       ****Iteration    9****
   Time for densities:            0.204
   Time for RI-J (Direct):        9.275
   Time for K (COSX):            39.639
   Time for XC-Integration:      12.809
   Time for LR-CPCM terms:        7.409
   Time for Sigma-Completion:     0.149
   Size of expansion space: 60
   Lowest Energy          :     0.108110321598
   Maximum Energy change  :     0.002090073205 (vector 5)
   Maximum residual norm  :     0.000269749906

                       ****Iteration   10****
   Time for densities:            0.210
   Time for RI-J (Direct):        9.291
   Time for K (COSX):            39.638
   Time for XC-Integration:      12.812
   Time for LR-CPCM terms:        7.384
   Time for Sigma-Completion:     0.152
   Size of expansion space: 70
   Lowest Energy          :     0.108110321593
   Maximum Energy change  :     0.000554567139 (vector 5)
   Maximum residual norm  :     0.000052858212
   Rebuilding the expansion space

                       ****Iteration   11****
   Time for densities:            0.415
   Time for RI-J (Direct):       12.579
   Time for K (COSX):            67.656
   Time for XC-Integration:      24.537
   Time for LR-CPCM terms:       11.777
   Time for Sigma-Completion:     0.304
   Size of expansion space: 20
   Lowest Energy          :     0.108110321870
   Maximum Energy change  :     0.000080689375 (vector 5)
   Maximum residual norm  :     0.000014930015

                       ****Iteration   12****
   Time for densities:            0.212
   Time for RI-J (Direct):        9.469
   Time for K (COSX):            39.919
   Time for XC-Integration:      13.675
   Time for LR-CPCM terms:        7.466
   Time for Sigma-Completion:     0.151
   Size of expansion space: 30
   Lowest Energy          :     0.108110321870
   Maximum Energy change  :     0.000028329386 (vector 5)
   Maximum residual norm  :     0.000004254054

                       ****Iteration   13****
   Time for densities:            0.189
   Time for RI-J (Direct):        9.521
   Time for K (COSX):            37.273
   Time for XC-Integration:      12.176
   Time for LR-CPCM terms:        6.990
   Time for Sigma-Completion:     0.134
   Size of expansion space: 39
   Lowest Energy          :     0.108110321870
   Maximum Energy change  :     0.000006935073 (vector 5)
   Maximum residual norm  :     0.000001174626

                       ****Iteration   14****
   Time for densities:            0.191
   Time for RI-J (Direct):        9.508
   Time for K (COSX):            36.789
   Time for XC-Integration:      11.952
   Time for LR-CPCM terms:        6.997
   Time for Sigma-Completion:     0.149
   Size of expansion space: 48
   Lowest Energy          :     0.108110321870
   Maximum Energy change  :     0.000001850716 (vector 5)
   Maximum residual norm  :     0.000000321716

      *** CONVERGENCE OF RESIDUAL NORM REACHED ***

Storing the converged CI vectors               ... optpbed3-wb2plyp-train-15_job2.cis1

                 *** DAVIDSON DONE ***

Total time for solving the CIS problem:  1228.136sec

------------------
DOUBLES CORRECTION (Double precision version)
------------------

The (D) correction will be scaled by  0.2700
Doing v(i,a)*T(i,a) terms (RI)                    ... ok
Doing u(i,j,a,b) terms for state   0              ... ok
Doing u(i,j,a,b) terms for state   1              ... ok
Doing u(i,j,a,b) terms for state   2              ... ok
Doing u(i,j,a,b) terms for state   3              ... ok
Doing u(i,j,a,b) terms for state   4              ... ok
Doing u(i,j,a,b) terms for state   5              ... ok
Doing u(i,j,a,b) terms for state   6              ... ok
Doing u(i,j,a,b) terms for state   7              ... ok
Doing u(i,j,a,b) terms for state   8              ... ok
Doing u(i,j,a,b) terms for state   9              ... ok

Contributions to the (D) correction(s) (in eV)

STATE  Final   Init.   Total   v(ext)   v(int)  v(3)    u
       omega   omega     (D)                             
-----------------------------------------------------------------------------
   0   2.832   2.942  -0.110   0.632   0.921  -0.054  -1.610
   1   3.035   3.202  -0.167   0.682   0.683  -0.033  -1.499
   2   4.238   4.419  -0.180   0.547   0.834  -0.069  -1.493
   3   4.513   4.923  -0.410   0.590   0.753  -0.041  -1.712
   4   4.708   5.109  -0.400   0.559   0.790  -0.057  -1.693
   5   4.931   5.447  -0.517   0.649   0.665  -0.024  -1.806
   6   5.134   5.523  -0.389   0.528   0.666  -0.041  -1.542
   7   5.546   5.588  -0.042   0.033   0.914  -0.002  -0.988
   8   5.228   5.674  -0.446   0.607   0.701  -0.041  -1.714
   9   5.731   5.845  -0.114   0.102   0.900  -0.006  -1.111

(D)-timings
 V(i,a)*T(i,a) terms           ...   422.802 sec
 U(i,j,a,b) 3-internal         ...     8.269 sec
 U(i,j,a,b) 3-external         ...   206.836 sec
 U(i,j,a,b) pair terms         ...   286.938 sec
 Total measured time           ...  1966.088 sec

 Time for (ab|v) I/O           ...    68.083 sec


------------------------------------
TD-DFT/TDA EXCITED STATES (SINGLETS)
------------------------------------

the weight of the individual excitations are printed if larger than 1.0e-02

STATE  1:  E=   0.104061 au      2.832 eV    22838.7 cm**-1 <S**2> =   0.000000
    68a ->  75a  :     0.011453 (c=  0.10701975)
    73a ->  75a  :     0.011581 (c= -0.10761285)
    73a ->  76a  :     0.031429 (c= -0.17728096)
    74a ->  75a  :     0.885979 (c=  0.94126466)

STATE  2:  E=   0.111529 au      3.035 eV    24477.9 cm**-1 <S**2> =   0.000000
    67a ->  75a  :     0.035441 (c= -0.18825696)
    69a ->  75a  :     0.624890 (c= -0.79049981)
    69a ->  76a  :     0.048009 (c= -0.21911069)
    69a -> 101a  :     0.012289 (c=  0.11085680)
    69a -> 121a  :     0.011448 (c= -0.10699559)
    70a ->  75a  :     0.146664 (c=  0.38296730)
    70a ->  76a  :     0.011143 (c=  0.10556027)
    74a ->  75a  :     0.011006 (c=  0.10490739)

STATE  3:  E=   0.155759 au      4.238 eV    34185.1 cm**-1 <S**2> =   0.000000
    71a ->  75a  :     0.010062 (c= -0.10031000)
    73a ->  75a  :     0.515653 (c= -0.71808955)
    74a ->  76a  :     0.340122 (c=  0.58319984)
    74a ->  82a  :     0.010970 (c=  0.10473663)

STATE  4:  E=   0.165859 au      4.513 eV    36401.8 cm**-1 <S**2> =   0.000000
    70a ->  75a  :     0.012998 (c= -0.11401010)
    71a ->  75a  :     0.447500 (c= -0.66895466)
    72a ->  75a  :     0.128595 (c=  0.35860128)
    72a ->  76a  :     0.011439 (c= -0.10695214)
    73a ->  75a  :     0.141847 (c=  0.37662587)
    73a ->  76a  :     0.022966 (c=  0.15154397)
    74a ->  76a  :     0.090953 (c=  0.30158398)
    74a ->  82a  :     0.014263 (c=  0.11942619)

STATE  5:  E=   0.173024 au      4.708 eV    37974.3 cm**-1 <S**2> =   0.000000
    68a ->  75a  :     0.030620 (c= -0.17498567)
    69a ->  75a  :     0.011132 (c=  0.10550686)
    70a ->  75a  :     0.052990 (c=  0.23019647)
    71a ->  75a  :     0.198769 (c= -0.44583503)
    72a ->  75a  :     0.117404 (c=  0.34264305)
    73a ->  75a  :     0.128831 (c= -0.35893010)
    73a ->  76a  :     0.048933 (c= -0.22120772)
    74a ->  76a  :     0.287762 (c= -0.53643430)
    74a ->  82a  :     0.025217 (c= -0.15879989)

STATE  6:  E=   0.181193 au      4.931 eV    39767.3 cm**-1 <S**2> =   0.000000
    67a ->  75a  :     0.701285 (c=  0.83742759)
    67a ->  76a  :     0.097106 (c=  0.31161808)
    67a ->  93a  :     0.027516 (c= -0.16587827)
    69a ->  75a  :     0.031399 (c= -0.17719698)

STATE  7:  E=   0.188671 au      5.134 eV    41408.6 cm**-1 <S**2> =   0.000000
    71a ->  75a  :     0.194731 (c=  0.44128350)
    71a ->  76a  :     0.028881 (c= -0.16994306)
    72a ->  75a  :     0.362877 (c=  0.60239287)
    72a ->  76a  :     0.266854 (c= -0.51657936)
    72a ->  82a  :     0.028746 (c= -0.16954656)

STATE  8:  E=   0.203806 au      5.546 eV    44730.3 cm**-1 <S**2> =   0.000000
    73a ->  78a  :     0.038107 (c=  0.19521032)
    73a ->  85a  :     0.011800 (c= -0.10862652)
    74a ->  77a  :     0.327524 (c= -0.57229695)
    74a ->  78a  :     0.215672 (c=  0.46440488)
    74a ->  79a  :     0.058187 (c=  0.24122054)
    74a ->  80a  :     0.047026 (c= -0.21685467)
    74a ->  85a  :     0.202049 (c= -0.44949836)

STATE  9:  E=   0.192132 au      5.228 eV    42168.1 cm**-1 <S**2> =   0.000000
    68a ->  75a  :     0.166508 (c=  0.40805377)
    68a ->  76a  :     0.039836 (c=  0.19958970)
    69a ->  75a  :     0.111777 (c=  0.33433068)
    70a ->  75a  :     0.474034 (c=  0.68850133)
    70a ->  76a  :     0.039324 (c=  0.19830246)
    73a ->  75a  :     0.020993 (c=  0.14489058)
    74a ->  82a  :     0.011897 (c=  0.10907188)

STATE 10:  E=   0.210622 au      5.731 eV    46226.3 cm**-1 <S**2> =   0.000000
    73a ->  77a  :     0.078151 (c= -0.27955559)
    73a ->  87a  :     0.011563 (c=  0.10753356)
    74a ->  77a  :     0.118577 (c=  0.34435054)
    74a ->  78a  :     0.246961 (c=  0.49695163)
    74a ->  79a  :     0.025493 (c= -0.15966475)
    74a ->  80a  :     0.029404 (c=  0.17147612)
    74a ->  83a  :     0.106476 (c= -0.32630732)
    74a ->  84a  :     0.019918 (c= -0.14113203)
    74a ->  87a  :     0.023320 (c= -0.15270915)
    74a ->  89a  :     0.038068 (c= -0.19511052)
    74a ->  92a  :     0.018108 (c= -0.13456465)
    74a ->  94a  :     0.010962 (c= -0.10470041)
    74a ->  99a  :     0.021487 (c=  0.14658424)
    74a -> 100a  :     0.024167 (c= -0.15545638)
    74a -> 105a  :     0.018362 (c=  0.13550634)


-----------------------------
TD-DFT/TDA-EXCITATION SPECTRA
-----------------------------

Center of mass = (  0.6697, -0.1323, -0.5517)
Calculating the Dipole integrals                  ... done
Transforming integrals                            ... done
Calculating the Linear Momentum integrals         ... done
Transforming integrals                            ... done
Calculating angular momentum integrals            ... done
Transforming integrals                            ... done

-----------------------------------------------------------------------------
         ABSORPTION SPECTRUM VIA TRANSITION ELECTRIC DIPOLE MOMENTS
-----------------------------------------------------------------------------
State   Energy    Wavelength  fosc         T2        TX        TY        TZ  
        (cm-1)      (nm)                 (au**2)    (au)      (au)      (au) 
-----------------------------------------------------------------------------
   1   22838.7    437.9   1.360769446  19.61503  -4.42774   0.10077  -0.00400
   2   24477.9    408.5   0.021151027   0.28447  -0.53270   0.02078  -0.01625
   3   34185.1    292.5   0.069392202   0.66827   0.28239   0.54990   0.53491
   4   36401.8    274.7   0.062533609   0.56554  -0.11112  -0.55844  -0.49126
   5   37974.3    263.3   0.054270930   0.47049  -0.45220  -0.39264  -0.33443
   6   39767.3    251.5   0.000512234   0.00424   0.00526  -0.06019   0.02428
   7   41408.6    241.5   0.167747045   1.33364   0.09328   0.92814   0.68081
   8   44730.3    223.6   0.000813037   0.00598  -0.03524  -0.06121  -0.03155
   9   42168.1    237.1   0.087352291   0.68197   0.76790   0.22092   0.20856
  10   46226.3    216.3   0.005316784   0.03786   0.04251   0.04307  -0.18494

-----------------------------------------------------------------------------
         ABSORPTION SPECTRUM VIA TRANSITION VELOCITY DIPOLE MOMENTS
-----------------------------------------------------------------------------
State   Energy    Wavelength   fosc        P2         PX        PY        PZ  
        (cm-1)      (nm)                 (au**2)     (au)      (au)      (au) 
-----------------------------------------------------------------------------
   1   22838.7    437.9   0.853344182   0.13320   0.36358  -0.02637  -0.01781
   2   24477.9    408.5   0.014208438   0.00238   0.04844  -0.00476   0.00286
   3   34185.1    292.5   0.026876663   0.00628   0.00165  -0.05933  -0.05250
   4   36401.8    274.7   0.003570173   0.00089   0.02976   0.00049   0.00161
   5   37974.3    263.3   0.004014793   0.00104   0.03148   0.00386   0.00600
   6   39767.3    251.5   0.000210362   0.00006  -0.00165  -0.00473   0.00566
   7   41408.6    241.5   0.004761269   0.00135  -0.02498  -0.02106  -0.01672
   8   44730.3    223.6   0.000133880   0.00004   0.00553  -0.00101   0.00306
   9   42168.1    237.1   0.034309636   0.00989  -0.08611   0.03711   0.03310
  10   46226.3    216.3   0.004899226   0.00155  -0.00494  -0.02250   0.03189

-------------------------------------------------------------------
                             CD SPECTRUM
-------------------------------------------------------------------
State  Energy     Wavelength     R         MX        MY        MZ   
       (cm-1)       (nm)     (1e40*cgs)   (au)      (au)      (au)  
-------------------------------------------------------------------
   1   22838.7    437.9    115.27165  -0.04501   0.42939  -0.47989
   2   24477.9    408.5    -94.06587   0.37909   0.14129   0.03195
   3   34185.1    292.5     -5.87406   0.01697   0.28885  -0.32920
   4   36401.8    274.7      3.74472   0.00423  -0.03544   0.02316
   5   37974.3    263.3     -5.48894  -0.00403  -0.00245   0.04314
   6   39767.3    251.5     -0.13352  -0.44210  -0.05060  -0.04137
   7   41408.6    241.5      2.99322  -0.01686  -0.16609   0.23806
   8   44730.3    223.6     -6.98038   0.04557   0.16863   0.09123
   9   42168.1    237.1     -2.59075  -0.00707  -0.16492   0.17439
  10   46226.3    216.3    -10.78241  -0.03673   0.13144   0.14583

-------------------------------------------------------------------
         CD SPECTRUM VIA TRANSITION VELOCITY DIPOLE MOMENTS        
-------------------------------------------------------------------
State  Energy     Wavelength     R         MX        MY        MZ   
       (cm-1)       (nm)     (1e40*cgs)   (au)      (au)      (au)  
-------------------------------------------------------------------
   1   22838.7    437.9    -86.72672  -0.04501   0.42939  -0.47989
   2   24477.9    408.5     75.15821   0.37909   0.14129   0.03195
   3   34185.1    292.5      0.52127   0.01697   0.28885  -0.32920
   4   36401.8    274.7      0.41428   0.00423  -0.03544   0.02316
   5   37974.3    263.3      0.33321  -0.00403  -0.00245   0.04314
   6   39767.3    251.5      1.91065  -0.44210  -0.05060  -0.04137
   7   41408.6    241.5     -0.15221  -0.01686  -0.16609   0.23806
   8   44730.3    223.6      0.83471   0.04557   0.16863   0.09123
   9   42168.1    237.1      0.64044  -0.00707  -0.16492   0.17439
  10   46226.3    216.3      4.19654  -0.03673   0.13144   0.14583

Total run time:     3199.917 sec

           *** ORCA-CIS/TD-DFT FINISHED WITHOUT ERROR ***

Maximum memory used throughout the entire CIS-calculation: 1419.6 MB

-----------------------
CIS/TD-DFT TOTAL ENERGY
-----------------------

    E(SCF)  =  -1818.938230700 Eh
    DE(CIS) =      0.104060697 Eh (Root  1)
    ----------------------------- ---------
    E(tot)  =  -1818.834170003 Eh

  Warning: (DFTVDWD): Non-parameterized functional used for dispersion correction ! 

  Warning: (D3BJ): Non-parameterized functional used for dispersion correction !

Please define all necessary parameters (s6, s8, a1, and a2) in the %method block!
[file orca_tools/Tool-Misc/qcdftvdw.cpp, line 36127]: ERROR in DFT dispersion correction!

