
                                 *****************
                                 * O   R   C   A *
                                 *****************

                                            #,                                       
                                            ###                                      
                                            ####                                     
                                            #####                                    
                                            ######                                   
                                           ########,                                 
                                     ,,################,,,,,                         
                               ,,#################################,,                 
                          ,,##########################################,,             
                       ,#########################################, ''#####,          
                    ,#############################################,,   '####,        
                  ,##################################################,,,,####,       
                ,###########''''           ''''###############################       
              ,#####''   ,,,,##########,,,,          '''####'''          '####       
            ,##' ,,,,###########################,,,                        '##       
           ' ,,###''''                  '''############,,,                           
         ,,##''                                '''############,,,,        ,,,,,,###''
      ,#''                                            '''#######################'''  
     '                                                          ''''####''''         
             ,#######,   #######,   ,#######,      ##                                
            ,#'     '#,  ##    ##  ,#'     '#,    #''#        ######   ,####,        
            ##       ##  ##   ,#'  ##            #'  '#       #        #'  '#        
            ##       ##  #######   ##           ,######,      #####,   #    #        
            '#,     ,#'  ##    ##  '#,     ,#' ,#      #,         ##   #,  ,#        
             '#######'   ##     ##  '#######'  #'      '#     #####' # '####'        



                  #######################################################
                  #                        -***-                        #
                  #          Department of theory and spectroscopy      #
                  #    Directorship and core code : Frank Neese         #
                  #        Max Planck Institute fuer Kohlenforschung    #
                  #                Kaiser Wilhelm Platz 1               #
                  #                 D-45470 Muelheim/Ruhr               #
                  #                      Germany                        #
                  #                                                     #
                  #                  All rights reserved                #
                  #                        -***-                        #
                  #######################################################


                         Program Version 5.0.2 -  RELEASE  -


 With contributions from (in alphabetic order):
   Daniel Aravena         : Magnetic Suceptibility
   Michael Atanasov       : Ab Initio Ligand Field Theory (pilot matlab implementation)
   Alexander A. Auer      : GIAO ZORA, VPT2 properties, NMR spectrum
   Ute Becker             : Parallelization
   Giovanni Bistoni       : ED, misc. LED, open-shell LED, HFLD
   Martin Brehm           : Molecular dynamics
   Dmytro Bykov           : SCF Hessian
   Vijay G. Chilkuri      : MRCI spin determinant printing, contributions to CSF-ICE
   Dipayan Datta          : RHF DLPNO-CCSD density
   Achintya Kumar Dutta   : EOM-CC, STEOM-CC
   Dmitry Ganyushin       : Spin-Orbit,Spin-Spin,Magnetic field MRCI
   Miquel Garcia          : C-PCM and meta-GGA Hessian, CC/C-PCM, Gaussian charge scheme
   Yang Guo               : DLPNO-NEVPT2, F12-NEVPT2, CIM, IAO-localization
   Andreas Hansen         : Spin unrestricted coupled pair/coupled cluster methods
   Benjamin Helmich-Paris : MC-RPA, TRAH-SCF, COSX integrals
   Lee Huntington         : MR-EOM, pCC
   Robert Izsak           : Overlap fitted RIJCOSX, COSX-SCS-MP3, EOM
   Marcus Kettner         : VPT2
   Christian Kollmar      : KDIIS, OOCD, Brueckner-CCSD(T), CCSD density, CASPT2, CASPT2-K
   Simone Kossmann        : Meta GGA functionals, TD-DFT gradient, OOMP2, MP2 Hessian
   Martin Krupicka        : Initial AUTO-CI
   Lucas Lang             : DCDCAS
   Marvin Lechner         : AUTO-CI (C++ implementation), FIC-MRCC
   Dagmar Lenk            : GEPOL surface, SMD
   Dimitrios Liakos       : Extrapolation schemes; Compound Job, initial MDCI parallelization
   Dimitrios Manganas     : Further ROCIS development; embedding schemes
   Dimitrios Pantazis     : SARC Basis sets
   Anastasios Papadopoulos: AUTO-CI, single reference methods and gradients
   Taras Petrenko         : DFT Hessian,TD-DFT gradient, ASA, ECA, R-Raman, ABS, FL, XAS/XES, NRVS
   Peter Pinski           : DLPNO-MP2, DLPNO-MP2 Gradient
   Christoph Reimann      : Effective Core Potentials
   Marius Retegan         : Local ZFS, SOC
   Christoph Riplinger    : Optimizer, TS searches, QM/MM, DLPNO-CCSD(T), (RO)-DLPNO pert. Triples
   Tobias Risthaus        : Range-separated hybrids, TD-DFT gradient, RPA, STAB
   Michael Roemelt        : Original ROCIS implementation
   Masaaki Saitow         : Open-shell DLPNO-CCSD energy and density
   Barbara Sandhoefer     : DKH picture change effects
   Avijit Sen             : IP-ROCIS
   Kantharuban Sivalingam : CASSCF convergence, NEVPT2, FIC-MRCI
   Bernardo de Souza      : ESD, SOC TD-DFT
   Georgi Stoychev        : AutoAux, RI-MP2 NMR, DLPNO-MP2 response
   Willem Van den Heuvel  : Paramagnetic NMR
   Boris Wezisla          : Elementary symmetry handling
   Frank Wennmohs         : Technical directorship


 We gratefully acknowledge several colleagues who have allowed us to
 interface, adapt or use parts of their codes:
   Stefan Grimme, W. Hujo, H. Kruse, P. Pracht,  : VdW corrections, initial TS optimization,
                  C. Bannwarth, S. Ehlert          DFT functionals, gCP, sTDA/sTD-DF
   Ed Valeev, F. Pavosevic, A. Kumar             : LibInt (2-el integral package), F12 methods
   Garnet Chan, S. Sharma, J. Yang, R. Olivares  : DMRG
   Ulf Ekstrom                                   : XCFun DFT Library
   Mihaly Kallay                                 : mrcc  (arbitrary order and MRCC methods)
   Jiri Pittner, Ondrej Demel                    : Mk-CCSD
   Frank Weinhold                                : gennbo (NPA and NBO analysis)
   Christopher J. Cramer and Donald G. Truhlar   : smd solvation model
   Lars Goerigk                                  : TD-DFT with DH, B97 family of functionals
   V. Asgeirsson, H. Jonsson                     : NEB implementation
   FAccTs GmbH                                   : IRC, NEB, NEB-TS, DLPNO-Multilevel, CI-OPT
                                                   MM, QMMM, 2- and 3-layer-ONIOM, Crystal-QMMM,
                                                   LR-CPCM, SF, NACMEs, symmetry and pop. for TD-DFT,
                                                   nearIR, NL-DFT gradient (VV10), updates on ESD,
                                                   ML-optimized integration grids
   S Lehtola, MJT Oliveira, MAL Marques          : LibXC Library
   Liviu Ungur et al                             : ANISO software


 Your calculation uses the libint2 library for the computation of 2-el integrals
 For citations please refer to: http://libint.valeyev.net

 Your ORCA version has been built with support for libXC version: 5.1.0
 For citations please refer to: https://tddft.org/programs/libxc/

 This ORCA versions uses:
   CBLAS   interface :  Fast vector & matrix operations
   LAPACKE interface :  Fast linear algebra routines
   SCALAPACK package :  Parallel linear algebra routines
   Shared memory     :  Shared parallel matrices
   BLAS/LAPACK       :  OpenBLAS 0.3.15  USE64BITINT DYNAMIC_ARCH NO_AFFINITY SkylakeX SINGLE_THREADED
        Core in use  :  SkylakeX
   Copyright (c) 2011-2014, The OpenBLAS Project


Your calculation utilizes the atom-pairwise dispersion correction
with the zero-damping scheme (D30)
Cite in your paper:
S.Grimme, J.Antony, S.Ehrlich and H.Krieg, J.Chem.Phys., 132, (2010), 154104 
   

Your calculation utilizes the SMD solvation module
Please cite in your paper:
A.V. Marenich, C.J. Cramer, D.G. Truhlar J. Phys. Chem. B, 113, (2009), 6378 

XCFun DFT library Copyright 2009-2010 Ulf Ekstrom and contributors.
See http://admol.org/xcfun for more information.
This is free software; see the source code for copying conditions.
There is ABSOLUTELY NO WARRANTY; not even for MERCHANTABILITY or FITNESS FOR A PARTICULAR PURPOSE.
For details see the documentation.
Scientific users of this library should cite U. Ekstrom, L. Visscher, R. Bast, A. J. Thorvaldsen and K. Ruud;
J.Chem.Theor.Comp. 2010, DOI: 10.1021/ct100117s
XCFun Version 0.99 

================================================================================

----- Orbital basis set information -----
Your calculation utilizes the basis: aug-cc-pVTZ 
    H, B-Ne : Obtained from the ccRepo (grant-hill.group.shef.ac.uk/ccrepo) Feb. 2017
              R. A. Kendall, T. H. Dunning, Jr., R. J. Harrison, J. Chem. Phys. 96, 6796 (1992)
         He : Obtained from the ccRepo (grant-hill.group.shef.ac.uk/ccrepo) Feb. 2017
              D. E. Woon, T. H. Dunning, Jr., J. Chem. Phys. 100, 2975 (1994)
  Li-Be, Na : Obtained from the ccRepo (grant-hill.group.shef.ac.uk/ccrepo) Feb. 2017
              B. P. Prascher, D. E. Woon, K. A. Peterson, T. H. Dunning, Jr., A. K. Wilson, Theor. Chem. Acc. 128, 69 (2011)
         Mg : Obtained from the Peterson Research Group Website (tyr0.chem.wsu.edu/~kipeters) Feb. 2017
              B. P. Prascher, D. E. Woon, K. A. Peterson, T. H. Dunning, Jr., A. K. Wilson, Theor. Chem. Acc. 128, 69 (2011)
      Al-Ar : Obtained from the ccRepo (grant-hill.group.shef.ac.uk/ccrepo) Feb. 2017
              D. E. Woon, T. H. Dunning, Jr., J. Chem. Phys. 98, 1358 (1993)
      Sc-Zn : Obtained from the ccRepo (grant-hill.group.shef.ac.uk/ccrepo) Feb. 2017
              N. B. Balabanov, K. A. Peterson, J. Chem. Phys. 123, 064107 (2005)
              N. B. Balabanov, K. A. Peterson, J. Chem. Phys. 125, 074110 (2006)
      Ga-Kr : Obtained from the ccRepo (grant-hill.group.shef.ac.uk/ccrepo) Feb. 2017
              A. K. Wilson, D. E. Woon, K. A. Peterson, T. H. Dunning, Jr., J. Chem. Phys. 110, 7667 (1999)
     Ag, Au : Obtained from the Peterson Research Group Website (tyr0.chem.wsu.edu/~kipeters) Feb. 2017
              K. A. Peterson, C. Puzzarini, Theor. Chem. Acc. 114, 283 (2005)

The basis set includes element-specific modifications.

Your calculation utilizes the basis: cc-pVTZ 
       H, B-Ne : Obtained from the ccRepo (grant-hill.group.shef.ac.uk/ccrepo) Feb. 2017
                 T. H. Dunning, Jr., J. Chem. Phys. 90, 1007 (1989)
            He : Obtained from the ccRepo (grant-hill.group.shef.ac.uk/ccrepo) Feb. 2017
                 D. E. Woon, T. H. Dunning, Jr., J. Chem. Phys. 100, 2975 (1994)
  Li-Be, Na-Mg : Obtained from the ccRepo (grant-hill.group.shef.ac.uk/ccrepo) Feb. 2017
                 B. P. Prascher, D. E. Woon, K. A. Peterson, T. H. Dunning, Jr., A. K. Wilson, Theor. Chem. Acc. 128, 69 (2011)
         Al-Ar : Obtained from the ccRepo (grant-hill.group.shef.ac.uk/ccrepo) Feb. 2017
                 D. E. Woon, T. H. Dunning, Jr., J. Chem. Phys. 98, 1358 (1993)
            Ca : Obtained from the Peterson Research Group Website (tyr0.chem.wsu.edu/~kipeters) Feb. 2017
                 J. Koput, K. A. Peterson, J. Phys. Chem. 106, 9595 (2002)
         Sc-Zn : Obtained from the ccRepo (grant-hill.group.shef.ac.uk/ccrepo) Feb. 2017
                 N. B. Balabanov, K. A. Peterson, J. Chem. Phys. 123, 064107 (2005)
                 N. B. Balabanov, K. A. Peterson, J. Chem. Phys. 125, 074110 (2006)
         Ga-Kr : Obtained from the ccRepo (grant-hill.group.shef.ac.uk/ccrepo) Feb. 2017
                 A. K. Wilson, D. E. Woon, K. A. Peterson, T. H. Dunning, Jr., J. Chem. Phys. 110, 7667 (1999)
             Y : Obtained from the ccRepo (grant-hill.group.shef.ac.uk/ccrepo) Feb. 2017
                 K. A. Peterson, D. Figgen, M. Dolg, H. Stoll, J. Chem. Phys. 126, 124101 (2007)
        Ag, Au : Obtained from the Peterson Research Group Website (tyr0.chem.wsu.edu/~kipeters) Feb. 2017
                 K. A. Peterson, C. Puzzarini, Theor. Chem. Acc. 114, 283 (2005)

----- AuxJ basis set information -----
Your calculation utilizes the auxiliary basis: aug-cc-pVTZ/JK 
  H, B-F, Al-Cl, Ga-Br : Obtained from the TURBOMOLE 7.0 basis set library

The basis set includes element-specific modifications.

Your calculation utilizes the auxiliary basis: cc-pVTZ/JK 
  H, B-F, Al-Cl, Ga-Br : Obtained from the TURBOMOLE 7.0 basis set library

----- AuxC basis set information -----
Your calculation utilizes the auxiliary basis: aug-cc-pVTZ/C 
  H-He, B-F, Al-Ar, Ga-Kr : Obtained from the EMSL Basis Set Exchange (bse.pnl.gov) Feb. 2017
                            F. Weigend, A. Kohn, C. Hattig, J. Chem. Phys. 116, 3175 (2002)
                   Be, Mg : Obtained from the TURBOMOLE 7.0 basis set library
                            C. Haettig, Phys. Chem. Chem. Phys. 7, 59 (2005)
                       Ne : Obtained from the EMSL Basis Set Exchange (bse.pnl.gov) Feb. 2017
                            C. Haettig, Phys. Chem. Chem. Phys. 7, 59 (2005)
                            F. Weigend, A. Kohn, C. Hattig, J. Chem. Phys. 116, 3175 (2002)
                    Sc-Zn : Obtained from the EMSL Basis Set Exchange (bse.pnl.gov) Feb. 2017
                            J. G. Hill, J. A. Platts, J. Chem. Phys. 128, 044104 (2008)

The basis set includes element-specific modifications.

Your calculation utilizes the auxiliary basis: cc-pVTZ/C 
  Obtained from the EMSL Basis Set Exchange (bse.pnl.gov) Feb. 2017
  H-He, B-F, Al-Ar, Ga-Kr : F. Weigend, A. Kohn, C. Hattig, J. Chem. Phys. 116, 3175 (2002)
             Li-Be, Na-Mg : C. Haettig, Phys. Chem. Chem. Phys. 7, 59 (2005)
                       Ne : C. Haettig, Phys. Chem. Chem. Phys. 7, 59 (2005)
                            F. Weigend, A. Kohn, C. Hattig, J. Chem. Phys. 116, 3175 (2002)
                    Sc-Zn : J. G. Hill, J. A. Platts, J. Chem. Phys. 128, 044104 (2008)

================================================================================
                                        WARNINGS
                       Please study these warnings very carefully!
================================================================================


WARNING: Geometry Optimization
  ===> : Switching off AutoStart
         For restart on a previous wavefunction, please use MOREAD

INFO   : the flag for use of the SHARK integral package has been found!



***************************************
The coordinates will be read from file: 
***************************************


Your calculation utilizes the atom-pairwise dispersion correction
with the zero-damping scheme (D30)
Cite in your paper:
S.Grimme, J.Antony, S.Ehrlich and H.Krieg, J.Chem.Phys., 132, (2010), 154104 
   

Your calculation utilizes the SMD solvation module
Please cite in your paper:
A.V. Marenich, C.J. Cramer, D.G. Truhlar J. Phys. Chem. B, 113, (2009), 6378 

XCFun DFT library Copyright 2009-2010 Ulf Ekstrom and contributors.
See http://admol.org/xcfun for more information.
This is free software; see the source code for copying conditions.
There is ABSOLUTELY NO WARRANTY; not even for MERCHANTABILITY or FITNESS FOR A PARTICULAR PURPOSE.
For details see the documentation.
Scientific users of this library should cite U. Ekstrom, L. Visscher, R. Bast, A. J. Thorvaldsen and K. Ruud;
J.Chem.Theor.Comp. 2010, DOI: 10.1021/ct100117s
XCFun Version 0.99 

================================================================================

----- Orbital basis set information -----
Your calculation utilizes the basis: aug-cc-pVTZ 
    H, B-Ne : Obtained from the ccRepo (grant-hill.group.shef.ac.uk/ccrepo) Feb. 2017
              R. A. Kendall, T. H. Dunning, Jr., R. J. Harrison, J. Chem. Phys. 96, 6796 (1992)
         He : Obtained from the ccRepo (grant-hill.group.shef.ac.uk/ccrepo) Feb. 2017
              D. E. Woon, T. H. Dunning, Jr., J. Chem. Phys. 100, 2975 (1994)
  Li-Be, Na : Obtained from the ccRepo (grant-hill.group.shef.ac.uk/ccrepo) Feb. 2017
              B. P. Prascher, D. E. Woon, K. A. Peterson, T. H. Dunning, Jr., A. K. Wilson, Theor. Chem. Acc. 128, 69 (2011)
         Mg : Obtained from the Peterson Research Group Website (tyr0.chem.wsu.edu/~kipeters) Feb. 2017
              B. P. Prascher, D. E. Woon, K. A. Peterson, T. H. Dunning, Jr., A. K. Wilson, Theor. Chem. Acc. 128, 69 (2011)
      Al-Ar : Obtained from the ccRepo (grant-hill.group.shef.ac.uk/ccrepo) Feb. 2017
              D. E. Woon, T. H. Dunning, Jr., J. Chem. Phys. 98, 1358 (1993)
      Sc-Zn : Obtained from the ccRepo (grant-hill.group.shef.ac.uk/ccrepo) Feb. 2017
              N. B. Balabanov, K. A. Peterson, J. Chem. Phys. 123, 064107 (2005)
              N. B. Balabanov, K. A. Peterson, J. Chem. Phys. 125, 074110 (2006)
      Ga-Kr : Obtained from the ccRepo (grant-hill.group.shef.ac.uk/ccrepo) Feb. 2017
              A. K. Wilson, D. E. Woon, K. A. Peterson, T. H. Dunning, Jr., J. Chem. Phys. 110, 7667 (1999)
     Ag, Au : Obtained from the Peterson Research Group Website (tyr0.chem.wsu.edu/~kipeters) Feb. 2017
              K. A. Peterson, C. Puzzarini, Theor. Chem. Acc. 114, 283 (2005)

The basis set includes element-specific modifications.

Your calculation utilizes the basis: cc-pVTZ 
       H, B-Ne : Obtained from the ccRepo (grant-hill.group.shef.ac.uk/ccrepo) Feb. 2017
                 T. H. Dunning, Jr., J. Chem. Phys. 90, 1007 (1989)
            He : Obtained from the ccRepo (grant-hill.group.shef.ac.uk/ccrepo) Feb. 2017
                 D. E. Woon, T. H. Dunning, Jr., J. Chem. Phys. 100, 2975 (1994)
  Li-Be, Na-Mg : Obtained from the ccRepo (grant-hill.group.shef.ac.uk/ccrepo) Feb. 2017
                 B. P. Prascher, D. E. Woon, K. A. Peterson, T. H. Dunning, Jr., A. K. Wilson, Theor. Chem. Acc. 128, 69 (2011)
         Al-Ar : Obtained from the ccRepo (grant-hill.group.shef.ac.uk/ccrepo) Feb. 2017
                 D. E. Woon, T. H. Dunning, Jr., J. Chem. Phys. 98, 1358 (1993)
            Ca : Obtained from the Peterson Research Group Website (tyr0.chem.wsu.edu/~kipeters) Feb. 2017
                 J. Koput, K. A. Peterson, J. Phys. Chem. 106, 9595 (2002)
         Sc-Zn : Obtained from the ccRepo (grant-hill.group.shef.ac.uk/ccrepo) Feb. 2017
                 N. B. Balabanov, K. A. Peterson, J. Chem. Phys. 123, 064107 (2005)
                 N. B. Balabanov, K. A. Peterson, J. Chem. Phys. 125, 074110 (2006)
         Ga-Kr : Obtained from the ccRepo (grant-hill.group.shef.ac.uk/ccrepo) Feb. 2017
                 A. K. Wilson, D. E. Woon, K. A. Peterson, T. H. Dunning, Jr., J. Chem. Phys. 110, 7667 (1999)
             Y : Obtained from the ccRepo (grant-hill.group.shef.ac.uk/ccrepo) Feb. 2017
                 K. A. Peterson, D. Figgen, M. Dolg, H. Stoll, J. Chem. Phys. 126, 124101 (2007)
        Ag, Au : Obtained from the Peterson Research Group Website (tyr0.chem.wsu.edu/~kipeters) Feb. 2017
                 K. A. Peterson, C. Puzzarini, Theor. Chem. Acc. 114, 283 (2005)

----- AuxJ basis set information -----
Your calculation utilizes the auxiliary basis: aug-cc-pVTZ/JK 
  H, B-F, Al-Cl, Ga-Br : Obtained from the TURBOMOLE 7.0 basis set library

The basis set includes element-specific modifications.

Your calculation utilizes the auxiliary basis: cc-pVTZ/JK 
  H, B-F, Al-Cl, Ga-Br : Obtained from the TURBOMOLE 7.0 basis set library

----- AuxC basis set information -----
Your calculation utilizes the auxiliary basis: aug-cc-pVTZ/C 
  H-He, B-F, Al-Ar, Ga-Kr : Obtained from the EMSL Basis Set Exchange (bse.pnl.gov) Feb. 2017
                            F. Weigend, A. Kohn, C. Hattig, J. Chem. Phys. 116, 3175 (2002)
                   Be, Mg : Obtained from the TURBOMOLE 7.0 basis set library
                            C. Haettig, Phys. Chem. Chem. Phys. 7, 59 (2005)
                       Ne : Obtained from the EMSL Basis Set Exchange (bse.pnl.gov) Feb. 2017
                            C. Haettig, Phys. Chem. Chem. Phys. 7, 59 (2005)
                            F. Weigend, A. Kohn, C. Hattig, J. Chem. Phys. 116, 3175 (2002)
                    Sc-Zn : Obtained from the EMSL Basis Set Exchange (bse.pnl.gov) Feb. 2017
                            J. G. Hill, J. A. Platts, J. Chem. Phys. 128, 044104 (2008)

The basis set includes element-specific modifications.

Your calculation utilizes the auxiliary basis: cc-pVTZ/C 
  Obtained from the EMSL Basis Set Exchange (bse.pnl.gov) Feb. 2017
  H-He, B-F, Al-Ar, Ga-Kr : F. Weigend, A. Kohn, C. Hattig, J. Chem. Phys. 116, 3175 (2002)
             Li-Be, Na-Mg : C. Haettig, Phys. Chem. Chem. Phys. 7, 59 (2005)
                       Ne : C. Haettig, Phys. Chem. Chem. Phys. 7, 59 (2005)
                            F. Weigend, A. Kohn, C. Hattig, J. Chem. Phys. 116, 3175 (2002)
                    Sc-Zn : J. G. Hill, J. A. Platts, J. Chem. Phys. 128, 044104 (2008)

================================================================================
                                        WARNINGS
                       Please study these warnings very carefully!
================================================================================

INFO   : Checking CIS options ...

INFO   : the flag for use of the SHARK integral package has been found!

================================================================================
                                       INPUT FILE
================================================================================
NAME = wb97x-d3-train-15.inp
|  1> ! wb97x-d3 aug-cc-PVTZ RIJCOSX Opt
|  2> %maxcore 4000
|  3> %basis
|  4>  AuxJ "aug-cc-PVTZ/JK"
|  5>  AuxC "aug-cc-PVTZ/C"
|  6>  newGTO H "cc-PVTZ" end
|  7>  newAuxJGTO H "cc-PVTZ/JK" end
|  8>  newAuxCGTO H "cc-PVTZ/C" end
|  9> end
| 10> %cpcm
| 11>  SMD true
| 12>  SMDsolvent "dimethylsulfoxide"
| 13> end
| 14> %pal nprocs 4 end
| 15> * xyz 0 1
| 16> C         -6.40460        1.20310        0.64210
| 17> C         -5.24970        0.46740        0.07220
| 18> C         -5.28390       -0.60600       -0.78920
| 19> N         -4.10750       -1.10170       -1.17240
| 20> C         -3.10180       -0.47260       -0.65330
| 21> N         -1.84160       -0.77160       -0.88030
| 22> N         -0.94070       -0.06400       -0.28470
| 23> C          0.33600       -0.36430       -0.52760
| 24> C          0.92970       -1.31870       -1.34880
| 25> C          2.31270       -1.28290       -1.30880
| 26> C          2.81780       -0.30790       -0.46080
| 27> C          4.18450       -0.01940       -0.19830
| 28> C          4.70860        0.93560        0.64110
| 29> C          6.11230        0.94260        0.65870
| 30> C          6.65350        0.00020       -0.16130
| 31> S          5.45820       -0.92080       -0.97660
| 32> S          1.54470        0.58790        0.30300
| 33> S         -3.62590        0.89480        0.43750
| 34> H         -7.33680        0.75810        0.30210
| 35> H         -6.37820        2.24890        0.33630
| 36> H         -6.37380        1.17710        1.73100
| 37> H         -6.18500       -1.05910       -1.16430
| 38> H          0.33790       -1.99490       -1.93880
| 39> H          2.95460       -1.93830       -1.87160
| 40> H          4.09050        1.60000        1.21750
| 41> H          6.69910        1.61820        1.25460
| 42> H          7.68910       -0.21160       -0.33850
| 43> *
| 44> 
| 45> 
| 46> $new_job
| 47> ! wb97x-d3 aug-cc-PVTZ RIJCOSX SP
| 48> %maxcore 4000
| 49> %basis
| 50>  AuxJ "aug-cc-PVTZ/JK"
| 51>  AuxC "aug-cc-PVTZ/C"
| 52>  newGTO H "cc-PVTZ" end
| 53>  newAuxJGTO H "cc-PVTZ/JK" end
| 54>  newAuxCGTO H "cc-PVTZ/C" end
| 55> end
| 56> %cpcm
| 57>  SMD true
| 58>  SMDsolvent "dimethylsulfoxide"
| 59> end
| 60> %pal nprocs 4 end
| 61> %tddft
| 62>  nroots 10
| 63>  maxdim 7
| 64> end
| 65> * xyzfile 0 1
| 66> 
| 67>                          ****END OF INPUT****
================================================================================


                 $$$$$$$$$$$$$$$$$$$$$$$$$$$$$$$$$$$$$$$$$$$$$$ 
                 $ THERE ARE  2 JOBS TO BE PROCESSED THIS RUN $
                 $$$$$$$$$$$$$$$$$$$$$$$$$$$$$$$$$$$$$$$$$$$$$$ 




                 $$$$$$$$$$$$$$$$  JOB NUMBER  1 $$$$$$$$$$$$$$


                       *****************************
                       * Geometry Optimization Run *
                       *****************************

Geometry optimization settings:
Update method            Update   .... BFGS
Choice of coordinates    CoordSys .... Z-matrix Internals
Initial Hessian          InHess   .... Almoef's Model

Convergence Tolerances:
Energy Change            TolE     ....  5.0000e-06 Eh
Max. Gradient            TolMAXG  ....  3.0000e-04 Eh/bohr
RMS Gradient             TolRMSG  ....  1.0000e-04 Eh/bohr
Max. Displacement        TolMAXD  ....  4.0000e-03 bohr
RMS Displacement         TolRMSD  ....  2.0000e-03 bohr
Strict Convergence                ....  False
------------------------------------------------------------------------------
                        ORCA OPTIMIZATION COORDINATE SETUP
------------------------------------------------------------------------------

The optimization will be done in new redundant internal coordinates
Making redundant internal coordinates   ...  (new redundants) done
Evaluating the initial hessian          ...  (Almloef) done
Evaluating the coordinates              ...  done
Calculating the B-matrix                .... done
Calculating the G-matrix                .... done
Diagonalizing the G-matrix              .... done
Small eigenvalue found = 1.880e-03
Small eigenvalue found = 9.429e-03
Small eigenvalue found = 1.737e-02
Small eigenvalue found = 1.920e-02
Small eigenvalue found = 2.312e-02
The first mode is                       ....   58
The number of degrees of freedom        ....   75

    -----------------------------------------------------------------
                    Redundant Internal Coordinates


    -----------------------------------------------------------------
         Definition                    Initial Value    Approx d2E/dq
    -----------------------------------------------------------------
      1. B(C   1,C   0)                  1.4832         0.443680   
      2. B(C   2,C   1)                  1.3767         0.656025   
      3. B(N   3,C   2)                  1.3328         0.690338   
      4. B(C   4,N   3)                  1.2949         0.793714   
      5. B(N   5,C   4)                  1.3149         0.737308   
      6. B(N   6,N   5)                  1.2911         0.720655   
      7. B(C   7,N   6)                  1.3338         0.687807   
      8. B(C   8,C   7)                  1.3920         0.620170   
      9. B(C   9,C   8)                  1.3840         0.638624   
     10. B(C  10,C   9)                  1.3874         0.630813   
     11. B(C  11,C  10)                  1.4213         0.556993   
     12. B(C  12,C  11)                  1.3752         0.659598   
     13. B(C  13,C  12)                  1.4038         0.593851   
     14. B(C  14,C  13)                  1.3614         0.694009   
     15. B(S  15,C  11)                  1.7437         0.459364   
     16. B(S  15,C  14)                  1.7151         0.510235   
     17. B(S  16,C  10)                  1.7340         0.476139   
     18. B(S  16,C   7)                  1.7486         0.451245   
     19. B(S  17,C   4)                  1.8260         0.339533   
     20. B(S  17,C   1)                  1.7184         0.504187   
     21. B(H  18,C   0)                  1.0875         0.363444   
     22. B(H  19,C   0)                  1.0899         0.360216   
     23. B(H  20,C   0)                  1.0896         0.360569   
     24. B(H  21,C   2)                  1.0761         0.378972   
     25. B(H  22,C   8)                  1.0750         0.380533   
     26. B(H  23,C   9)                  1.0763         0.378747   
     27. B(H  24,C  12)                  1.0750         0.380443   
     28. B(H  25,C  13)                  1.0751         0.380343   
     29. B(H  26,C  14)                  1.0718         0.385018   
     30. A(H  18,C   0,H  20)          109.0807         0.291322   
     31. A(C   1,C   0,H  20)          110.4954         0.333732   
     32. A(C   1,C   0,H  18)          110.1432         0.334172   
     33. A(H  19,C   0,H  20)          107.6133         0.290914   
     34. A(C   1,C   0,H  19)          110.4435         0.333677   
     35. A(H  18,C   0,H  19)          109.0069         0.291277   
     36. A(C   2,C   1,S  17)          110.5123         0.445940   
     37. A(C   0,C   1,S  17)          122.0560         0.415702   
     38. A(C   0,C   1,C   2)          127.4316         0.413013   
     39. A(N   3,C   2,H  21)          118.8342         0.360300   
     40. A(C   1,C   2,H  21)          124.5546         0.359413   
     41. A(C   1,C   2,N   3)          116.6112         0.444164   
     42. A(C   2,N   3,C   4)          112.9278         0.456763   
     43. A(N   5,C   4,S  17)          123.2627         0.421372   
     44. A(N   3,C   4,S  17)          112.3572         0.426964   
     45. A(N   3,C   4,N   5)          124.3799         0.462283   
     46. A(C   4,N   5,N   6)          117.6752         0.451148   
     47. A(N   5,N   6,C   7)          117.4174         0.445496   
     48. A(N   6,C   7,C   8)          132.0685         0.439383   
     49. A(C   8,C   7,S  16)          111.0245         0.432689   
     50. A(N   6,C   7,S  16)          116.9060         0.437941   
     51. A(C   9,C   8,H  22)          125.6084         0.358022   
     52. A(C   7,C   8,H  22)          121.3501         0.356243   
     53. A(C   7,C   8,C   9)          113.0414         0.436407   
     54. A(C  10,C   9,H  23)          122.0351         0.356989   
     55. A(C   8,C   9,H  23)          124.4096         0.357736   
     56. A(C   8,C   9,C  10)          113.5552         0.437747   
     57. A(C   9,C  10,C  11)          127.2739         0.427117   
     58. A(C  11,C  10,S  16)          121.3188         0.428534   
     59. A(C   9,C  10,S  16)          111.4073         0.438234   
     60. A(C  12,C  11,S  15)          110.6731         0.438927   
     61. A(C  10,C  11,S  15)          120.9996         0.425789   
     62. A(C  10,C  11,C  12)          128.3273         0.430550   
     63. A(C  11,C  12,C  13)          113.0900         0.435539   
     64. A(C  11,C  12,H  24)          122.5009         0.359983   
     65. A(C  13,C  12,H  24)          124.4092         0.353619   
     66. A(C  12,C  13,C  14)          112.7364         0.439551   
     67. A(C  14,C  13,H  25)          123.4953         0.363104   
     68. A(C  12,C  13,H  25)          123.7683         0.353603   
     69. A(S  15,C  14,H  26)          119.2536         0.363375   
     70. A(C  13,C  14,H  26)          128.3516         0.363863   
     71. A(C  13,C  14,S  15)          112.3948         0.451493   
     72. A(C  11,S  15,C  14)           91.1058         0.442350   
     73. A(C   7,S  16,C  10)           90.9714         0.435460   
     74. A(C   1,S  17,C   4)           87.5915         0.418094   
     75. D(C   2,C   1,C   0,H  20)    122.0347         0.014522   
     76. D(S  17,C   1,C   0,H  18)   -178.7265         0.014522   
     77. D(S  17,C   1,C   0,H  19)     60.8127         0.014522   
     78. D(C   2,C   1,C   0,H  18)      1.4483         0.014522   
     79. D(S  17,C   1,C   0,H  20)    -58.1401         0.014522   
     80. D(C   2,C   1,C   0,H  19)   -119.0125         0.014522   
     81. D(N   3,C   2,C   1,S  17)     -0.0721         0.030005   
     82. D(H  21,C   2,C   1,S  17)    179.9598         0.030005   
     83. D(H  21,C   2,C   1,C   0)     -0.1984         0.030005   
     84. D(N   3,C   2,C   1,C   0)    179.7697         0.030005   
     85. D(C   4,N   3,C   2,H  21)   -179.9482         0.035595   
     86. D(C   4,N   3,C   2,C   1)      0.0817         0.035595   
     87. D(S  17,C   4,N   3,C   2)     -0.0518         0.048463   
     88. D(N   5,C   4,N   3,C   2)   -179.8732         0.048463   
     89. D(N   6,N   5,C   4,N   3)   -179.4409         0.041138   
     90. D(N   6,N   5,C   4,S  17)      0.7566         0.041138   
     91. D(C   7,N   6,N   5,C   4)   -179.4365         0.040845   
     92. D(S  16,C   7,N   6,N   5)   -179.1778         0.035310   
     93. D(C   8,C   7,N   6,N   5)      1.2188         0.035310   
     94. D(H  22,C   8,C   7,S  16)   -179.9138         0.026615   
     95. D(H  22,C   8,C   7,N   6)     -0.2927         0.026615   
     96. D(C   9,C   8,C   7,S  16)      0.0131         0.026615   
     97. D(C   9,C   8,C   7,N   6)    179.6342         0.026615   
     98. D(H  23,C   9,C   8,H  22)     -0.0571         0.028328   
     99. D(H  23,C   9,C   8,C   7)   -179.9803         0.028328   
    100. D(C  10,C   9,C   8,H  22)    179.9846         0.028328   
    101. D(C  10,C   9,C   8,C   7)      0.0614         0.028328   
    102. D(S  16,C  10,C   9,H  23)    179.9324         0.027595   
    103. D(S  16,C  10,C   9,C   8)     -0.1082         0.027595   
    104. D(C  11,C  10,C   9,H  23)     -0.1000         0.027595   
    105. D(C  11,C  10,C   9,C   8)    179.8594         0.027595   
    106. D(S  15,C  11,C  10,S  16)   -179.7202         0.021243   
    107. D(S  15,C  11,C  10,C   9)      0.3152         0.021243   
    108. D(C  12,C  11,C  10,S  16)      0.3067         0.021243   
    109. D(C  12,C  11,C  10,C   9)   -179.6579         0.021243   
    110. D(H  24,C  12,C  11,S  15)   -179.9906         0.030356   
    111. D(H  24,C  12,C  11,C  10)     -0.0152         0.030356   
    112. D(C  13,C  12,C  11,S  15)     -0.0125         0.030356   
    113. D(C  13,C  12,C  11,C  10)    179.9629         0.030356   
    114. D(H  25,C  13,C  12,H  24)     -0.0073         0.024285   
    115. D(H  25,C  13,C  12,C  11)   -179.9849         0.024285   
    116. D(C  14,C  13,C  12,H  24)    179.9890         0.024285   
    117. D(C  14,C  13,C  12,C  11)      0.0113         0.024285   
    118. D(H  26,C  14,C  13,H  25)     -0.0233         0.033874   
    119. D(H  26,C  14,C  13,C  12)    179.9804         0.033874   
    120. D(S  15,C  14,C  13,H  25)    179.9915         0.033874   
    121. D(S  15,C  14,C  13,C  12)     -0.0048         0.033874   
    122. D(C  11,S  15,C  14,H  26)   -179.9887         0.005367   
    123. D(C  11,S  15,C  14,C  13)     -0.0020         0.005367   
    124. D(C  14,S  15,C  11,C  12)      0.0082         0.004603   
    125. D(C  14,S  15,C  11,C  10)   -179.9692         0.004603   
    126. D(C   7,S  16,C  10,C  11)   -179.8737         0.004844   
    127. D(C   7,S  16,C  10,C   9)      0.0961         0.004844   
    128. D(C  10,S  16,C   7,C   8)     -0.0623         0.004489   
    129. D(C  10,S  16,C   7,N   6)   -179.7468         0.004489   
    130. D(C   1,S  17,C   4,N   5)    179.8338         0.003156   
    131. D(C   1,S  17,C   4,N   3)      0.0100         0.003156   
    132. D(C   4,S  17,C   1,C   2)      0.0326         0.005271   
    133. D(C   4,S  17,C   1,C   0)   -179.8192         0.005271   
    -----------------------------------------------------------------

Number of atoms                         .... 27
Number of degrees of freedom            .... 133

         *************************************************************
         *                GEOMETRY OPTIMIZATION CYCLE   1            *
         *************************************************************
---------------------------------
CARTESIAN COORDINATES (ANGSTROEM)
---------------------------------
  C     -6.404600    1.203100    0.642100
  C     -5.249700    0.467400    0.072200
  C     -5.283900   -0.606000   -0.789200
  N     -4.107500   -1.101700   -1.172400
  C     -3.101800   -0.472600   -0.653300
  N     -1.841600   -0.771600   -0.880300
  N     -0.940700   -0.064000   -0.284700
  C      0.336000   -0.364300   -0.527600
  C      0.929700   -1.318700   -1.348800
  C      2.312700   -1.282900   -1.308800
  C      2.817800   -0.307900   -0.460800
  C      4.184500   -0.019400   -0.198300
  C      4.708600    0.935600    0.641100
  C      6.112300    0.942600    0.658700
  C      6.653500    0.000200   -0.161300
  S      5.458200   -0.920800   -0.976600
  S      1.544700    0.587900    0.303000
  S     -3.625900    0.894800    0.437500
  H     -7.336800    0.758100    0.302100
  H     -6.378200    2.248900    0.336300
  H     -6.373800    1.177100    1.731000
  H     -6.185000   -1.059100   -1.164300
  H      0.337900   -1.994900   -1.938800
  H      2.954600   -1.938300   -1.871600
  H      4.090500    1.600000    1.217500
  H      6.699100    1.618200    1.254600
  H      7.689100   -0.211600   -0.338500

----------------------------
CARTESIAN COORDINATES (A.U.)
----------------------------
  NO LB      ZA    FRAG     MASS         X           Y           Z
   0 C     6.0000    0    12.011  -12.102940    2.273530    1.213393
   1 C     6.0000    0    12.011   -9.920495    0.883258    0.136438
   2 C     6.0000    0    12.011   -9.985124   -1.145174   -1.491372
   3 N     7.0000    0    14.007   -7.762050   -2.081911   -2.215515
   4 C     6.0000    0    12.011   -5.861553   -0.893085   -1.234558
   5 N     7.0000    0    14.007   -3.480120   -1.458113   -1.663526
   6 N     7.0000    0    14.007   -1.777665   -0.120942   -0.538005
   7 C     6.0000    0    12.011    0.634948   -0.688427   -0.997020
   8 C     6.0000    0    12.011    1.756878   -2.491982   -2.548863
   9 C     6.0000    0    12.011    4.370370   -2.424330   -2.473274
  10 C     6.0000    0    12.011    5.324870   -0.581847   -0.870786
  11 C     6.0000    0    12.011    7.907559   -0.036661   -0.374733
  12 C     6.0000    0    12.011    8.897964    1.768028    1.211503
  13 C     6.0000    0    12.011   11.550573    1.781256    1.244763
  14 C     6.0000    0    12.011   12.573293    0.000378   -0.304813
  15 S    16.0000    0    32.060   10.314503   -1.740060   -1.845507
  16 S    16.0000    0    32.060    2.919060    1.110970    0.572587
  17 S    16.0000    0    32.060   -6.851958    1.690927    0.826755
  18 H     1.0000    0     1.008  -13.864543    1.432601    0.570886
  19 H     1.0000    0     1.008  -12.053051    4.249805    0.635515
  20 H     1.0000    0     1.008  -12.044736    2.224397    3.271116
  21 H     1.0000    0     1.008  -11.687956   -2.001409   -2.200208
  22 H     1.0000    0     1.008    0.638538   -3.769815   -3.663801
  23 H     1.0000    0     1.008    5.583385   -3.662856   -3.536811
  24 H     1.0000    0     1.008    7.729925    3.023562    2.300742
  25 H     1.0000    0     1.008   12.659464    3.057955    2.370850
  26 H     1.0000    0     1.008   14.530293   -0.399866   -0.639672

--------------------------------
INTERNAL COORDINATES (ANGSTROEM)
--------------------------------
 C      0   0   0     0.000000000000     0.00000000     0.00000000
 C      1   0   0     1.483183909702     0.00000000     0.00000000
 C      2   1   0     1.376723341852   127.43156027     0.00000000
 N      3   2   1     1.332845711251   116.61117704   179.76970621
 C      4   3   2     1.294860652734   112.92782957     0.08171976
 N      5   4   3     1.314927389630   124.37988595   180.12675332
 N      6   5   4     1.291145975481   117.67518377   180.55911071
 C      7   6   5     1.333845339610   117.41740699   180.56349239
 C      8   7   6     1.392023164319   132.06849354     1.21877910
 C      9   8   7     1.384041415565   113.04142654   179.63420699
 C     10   9   8     1.387391440798   113.55524179     0.06135814
 C     11  10   9     1.421269640146   127.27388723   179.85940227
 C     12  11  10     1.375244767305   128.32732177   180.34206345
 C     13  12  11     1.403827785022   113.08996284   179.96288894
 C     14  13  12     1.361401924488   112.73640443     0.00000000
 S     15  14  13     1.715137656283   112.39479476     0.00000000
 S     11  10   9     1.733964154762   111.40729683   359.89184312
 S      2   1   3     1.718383336162   122.05595362   179.82520765
 H      1   2   3     1.087484179195   110.14324702     1.44825620
 H      1   2   3     1.089912033148   110.44347942   240.98748219
 H      1   2   3     1.089645745185   110.49542295   122.03466782
 H      3   2   1     1.076095177017   124.55463072   359.80158249
 H      9   8   7     1.074976129968   121.35009188   359.70727563
 H     10   9   8     1.076256758399   124.40963219   180.01967055
 H     13  12  11     1.075040431798   122.50085991     0.00000000
 H     14  13  12     1.075112277858   123.76832564   180.01509630
 H     15  14  13     1.071786564573   128.35162750   179.98044240

---------------------------
INTERNAL COORDINATES (A.U.)
---------------------------
 C      0   0   0     0.000000000000     0.00000000     0.00000000
 C      1   0   0     2.802811395576     0.00000000     0.00000000
 C      2   1   0     2.601630078277   127.43156027     0.00000000
 N      3   2   1     2.518713373036   116.61117704   179.76970621
 C      4   3   2     2.446932015259   112.92782957     0.08171976
 N      5   4   3     2.484852652393   124.37988595   180.12675332
 N      6   5   4     2.439912292573   117.67518377   180.55911071
 C      7   6   5     2.520602396871   117.41740699   180.56349239
 C      8   7   6     2.630542552637   132.06849354     1.21877910
 C      9   8   7     2.615459233423   113.04142654   179.63420699
 C     10   9   8     2.621789863655   113.55524179     0.06135814
 C     11  10   9     2.685810382332   127.27388723   179.85940227
 C     12  11  10     2.598835977315   128.32732177   180.34206345
 C     13  12  11     2.652850052881   113.08996284   179.96288894
 C     14  13  12     2.572676795476   112.73640443     0.00000000
 S     15  14  13     3.241140452350   112.39479476     0.00000000
 S     11  10   9     3.276717378537   111.40729683   359.89184312
 S      2   1   3     3.247273898441   122.05595362   179.82520765
 H      1   2   3     2.055047273651   110.14324702     1.44825620
 H      1   2   3     2.059635252714   110.44347942   240.98748219
 H      1   2   3     2.059132041392   110.49542295   122.03466782
 H      3   2   1     2.033525178596   124.55463072   359.80158249
 H      9   8   7     2.031410486141   121.35009188   359.70727563
 H     10   9   8     2.033830523156   124.40963219   180.01967055
 H     13  12  11     2.031531998990   122.50085991     0.00000000
 H     14  13  12     2.031667768367   123.76832564   180.01509630
 H     15  14  13     2.025383081060   128.35162750   179.98044240

---------------------
BASIS SET INFORMATION
---------------------
There are 4 groups of distinct atoms

 Group   1 Type C   : 19s6p3d2f contracted to 5s4p3d2f pattern {88111/3111/111/11}
 Group   2 Type N   : 19s6p3d2f contracted to 5s4p3d2f pattern {88111/3111/111/11}
 Group   3 Type S   : 42s17p3d2f contracted to 6s5p3d2f pattern {131313111/77111/111/11}
 Group   4 Type H   : 5s2p1d contracted to 3s2p1d pattern {311/11/1}

Atom   0C    basis set group =>   1
Atom   1C    basis set group =>   1
Atom   2C    basis set group =>   1
Atom   3N    basis set group =>   2
Atom   4C    basis set group =>   1
Atom   5N    basis set group =>   2
Atom   6N    basis set group =>   2
Atom   7C    basis set group =>   1
Atom   8C    basis set group =>   1
Atom   9C    basis set group =>   1
Atom  10C    basis set group =>   1
Atom  11C    basis set group =>   1
Atom  12C    basis set group =>   1
Atom  13C    basis set group =>   1
Atom  14C    basis set group =>   1
Atom  15S    basis set group =>   3
Atom  16S    basis set group =>   3
Atom  17S    basis set group =>   3
Atom  18H    basis set group =>   4
Atom  19H    basis set group =>   4
Atom  20H    basis set group =>   4
Atom  21H    basis set group =>   4
Atom  22H    basis set group =>   4
Atom  23H    basis set group =>   4
Atom  24H    basis set group =>   4
Atom  25H    basis set group =>   4
Atom  26H    basis set group =>   4
---------------------------------
AUXILIARY/J BASIS SET INFORMATION
---------------------------------
There are 4 groups of distinct atoms

 Group   1 Type C   : 10s7p5d2f1g contracted to 10s7p5d2f1g pattern {1111111111/1111111/11111/11/1}
 Group   2 Type N   : 10s7p5d2f1g contracted to 10s7p5d2f1g pattern {1111111111/1111111/11111/11/1}
 Group   3 Type S   : 13s11p9d3f1g contracted to 13s11p9d3f1g pattern {1111111111111/11111111111/111111111/111/1}
 Group   4 Type H   : 4s3p2d1f contracted to 4s3p2d1f pattern {1111/111/11/1}

Atom   0C    basis set group =>   1
Atom   1C    basis set group =>   1
Atom   2C    basis set group =>   1
Atom   3N    basis set group =>   2
Atom   4C    basis set group =>   1
Atom   5N    basis set group =>   2
Atom   6N    basis set group =>   2
Atom   7C    basis set group =>   1
Atom   8C    basis set group =>   1
Atom   9C    basis set group =>   1
Atom  10C    basis set group =>   1
Atom  11C    basis set group =>   1
Atom  12C    basis set group =>   1
Atom  13C    basis set group =>   1
Atom  14C    basis set group =>   1
Atom  15S    basis set group =>   3
Atom  16S    basis set group =>   3
Atom  17S    basis set group =>   3
Atom  18H    basis set group =>   4
Atom  19H    basis set group =>   4
Atom  20H    basis set group =>   4
Atom  21H    basis set group =>   4
Atom  22H    basis set group =>   4
Atom  23H    basis set group =>   4
Atom  24H    basis set group =>   4
Atom  25H    basis set group =>   4
Atom  26H    basis set group =>   4
---------------------------------
AUXILIARY/C BASIS SET INFORMATION
---------------------------------
There are 4 groups of distinct atoms

 Group   1 Type C   : 9s7p6d4f2g contracted to 9s7p6d4f2g pattern {111111111/1111111/111111/1111/11}
 Group   2 Type N   : 9s7p6d4f2g contracted to 9s7p6d4f2g pattern {111111111/1111111/111111/1111/11}
 Group   3 Type S   : 11s9p8d6f3g contracted to 11s9p8d6f3g pattern {11111111111/111111111/11111111/111111/111}
 Group   4 Type H   : 4s3p2d1f contracted to 4s3p2d1f pattern {1111/111/11/1}

Atom   0C    basis set group =>   1
Atom   1C    basis set group =>   1
Atom   2C    basis set group =>   1
Atom   3N    basis set group =>   2
Atom   4C    basis set group =>   1
Atom   5N    basis set group =>   2
Atom   6N    basis set group =>   2
Atom   7C    basis set group =>   1
Atom   8C    basis set group =>   1
Atom   9C    basis set group =>   1
Atom  10C    basis set group =>   1
Atom  11C    basis set group =>   1
Atom  12C    basis set group =>   1
Atom  13C    basis set group =>   1
Atom  14C    basis set group =>   1
Atom  15S    basis set group =>   3
Atom  16S    basis set group =>   3
Atom  17S    basis set group =>   3
Atom  18H    basis set group =>   4
Atom  19H    basis set group =>   4
Atom  20H    basis set group =>   4
Atom  21H    basis set group =>   4
Atom  22H    basis set group =>   4
Atom  23H    basis set group =>   4
Atom  24H    basis set group =>   4
Atom  25H    basis set group =>   4
Atom  26H    basis set group =>   4


           ************************************************************
           *        Program running with 4 parallel MPI-processes     *
           *              working on a common directory               *
           ************************************************************
------------------------------------------------------------------------------
                           ORCA GTO INTEGRAL CALCULATION
                           -- RI-GTO INTEGRALS CHOSEN --
------------------------------------------------------------------------------
------------------------------------------------------------------------------
                   ___                                                        
                  /   \      - P O W E R E D   B Y -                         
                 /     \                                                     
                 |  |  |   _    _      __       _____    __    __             
                 |  |  |  | |  | |    /  \     |  _  \  |  |  /  |          
                  \  \/   | |  | |   /    \    | | | |  |  | /  /          
                 / \  \   | |__| |  /  /\  \   | |_| |  |  |/  /          
                |  |  |   |  __  | /  /__\  \  |    /   |      \           
                |  |  |   | |  | | |   __   |  |    \   |  |\   \          
                \     /   | |  | | |  |  |  |  | |\  \  |  | \   \       
                 \___/    |_|  |_| |__|  |__|  |_| \__\ |__|  \__/        
                                                                              
                      - O R C A' S   B I G   F R I E N D -                    
                                      &                                       
                       - I N T E G R A L  F E E D E R -                       
                                                                              
 v1 FN, 2020, v2 2021                                                         
------------------------------------------------------------------------------


Reading SHARK input file wb97x-d3-train-15.SHARKINP.tmp ... ok
----------------------
SHARK INTEGRAL PACKAGE
----------------------

Number of atoms                             ...     27
Number of basis functions                   ...   1131
Number of shells                            ...    447
Maximum angular momentum                    ...      3
Integral batch strategy                     ... SHARK/LIBINT Hybrid
RI-J (if used) integral strategy            ... SPLIT-RIJ (Revised 2003 algorithm where possible)
Printlevel                                  ...      1
Contraction scheme used                     ... PARTIAL GENERAL contraction
Coulomb Range Separation                    ... NOT USED
Exchange Range Separation                   ... Long Range
   Mu parameter                             ...  0.250000
   Scaling (regular/separated)              ...  0.195728  0.804272
Finite Nucleus Model                        ... NOT USED
Auxiliary Coulomb fitting basis             ... AVAILABLE
   # of basis functions in Aux-J            ...   1818
   # of shells in Aux-J                     ...    576
   Maximum angular momentum in Aux-J        ...      4
Auxiliary J/K fitting basis                 ... NOT available
Auxiliary Correlation fitting basis         ... AVAILABLE
   # of basis functions in Aux-C            ...   2301
   # of shells in Aux-C                     ...    621
   Maximum angular momentum in Aux-C        ...      4
Auxiliary 'external' fitting basis          ... NOT available
Integral threshold                          ...     2.500000e-11
Primitive cut-off                           ...     2.500000e-12
Primitive pair pre-selection threshold      ...     2.500000e-12

Calculating pre-screening integrals         ... done (  0.2 sec) Dimension = 447
Calculating pre-screening integrals (ORCA)  ... done (  0.6 sec) Dimension = 312
Organizing shell pair data                  ... done (  2.7 sec)
Shell pair information
Total number of shell pairs                 ...    100128
Shell pairs after pre-screening             ...     56840
Total number of primitive shell pairs       ...    122832
Primitive shell pairs kept                  ...     64064
          la=0 lb=0:  12415 shell pairs
          la=1 lb=0:  15086 shell pairs
          la=1 lb=1:   4113 shell pairs
          la=2 lb=0:   9107 shell pairs
          la=2 lb=1:   4789 shell pairs
          la=2 lb=2:   1452 shell pairs
          la=3 lb=0:   5062 shell pairs
          la=3 lb=1:   2712 shell pairs
          la=3 lb=2:   1627 shell pairs
          la=3 lb=3:    477 shell pairs

Calculating one electron integrals          ... done (  0.2 sec)
Calculating RI/J V-Matrix + Cholesky decomp.... done (  0.5 sec)
Calculating RI/C V-Matrix + Cholesky decomp.... done (  1.3 sec)
Calculating Nuclear repulsion               ... done (  0.0 sec) ENN=   1485.586984744147 Eh

SHARK setup successfully completed in   7.1 seconds

Maximum memory used throughout the entire GTOINT-calculation: 92.0 MB


           ************************************************************
           *        Program running with 4 parallel MPI-processes     *
           *              working on a common directory               *
           ************************************************************
-------------------------------------------------------------------------------
                                 ORCA SCF
-------------------------------------------------------------------------------

------------
SCF SETTINGS
------------
Hamiltonian:
 Density Functional     Method          .... DFT(GTOs)
 Exchange Functional    Exchange        .... WB97X-D3
 Correlation Functional Correlation     .... WB97X-D3
 Gradients option       PostSCFGGA      .... off
 Hybrid DFT is turned on
   Fraction HF Exchange ScalHFX         ....  0.195728
   Scaling of DF-GGA-X  ScalDFX         ....  0.000000
   Scaling of DF-GGA-C  ScalDFC         ....  1.000000
   Scaling of DF-LDA-C  ScalLDAC        ....  1.000000
   Perturbative correction              ....  0.000000
   Density functional embedding theory  .... OFF
 Long-range corrected/Screened/Range-Separated Hybrid DFT is turned on
   Amount of maximum screened exact exchange              ....  0.804272
   Range separation parameter mu (erf(mu*r12)/r12)        ....  0.250000
 RI-approximation to the Coulomb term is turned on
   Number of AuxJ basis functions       .... 1818
   RIJ-COSX (HFX calculated with COS-X)).... on


General Settings:
 Integral files         IntName         .... wb97x-d3-train-15
 Hartree-Fock type      HFTyp           .... RHF
 Total Charge           Charge          ....    0
 Multiplicity           Mult            ....    1
 Number of Electrons    NEL             ....  150
 Basis Dimension        Dim             ....  966
 Nuclear Repulsion      ENuc            ....   1485.5869847441 Eh

Convergence Acceleration:
 DIIS                   CNVDIIS         .... on
   Start iteration      DIISMaxIt       ....    12
   Startup error        DIISStart       ....  0.200000
   # of expansion vecs  DIISMaxEq       ....     5
   Bias factor          DIISBfac        ....   1.050
   Max. coefficient     DIISMaxC        ....  10.000
 Trust-Rad. Augm. Hess. CNVTRAH         .... auto
   Auto Start mean grad. ratio tolernc. ....  1.125000
   Auto Start start iteration           ....    20
   Auto Start num. interpolation iter.  ....    10
   Max. Number of Micro iterations      ....    16
   Max. Number of Macro iterations      .... Maxiter - #DIIS iter
   Number of Davidson start vectors     ....     2
   Converg. threshold I  (grad. norm)   ....   1.000e-05
   Converg. threshold II (energy diff.) ....   1.000e-08
   Grad. Scal. Fac. for Micro threshold ....   0.100
   Minimum threshold for Micro iter.    ....   0.010
   NR start threshold (gradient norm)   ....   0.001
   Initial trust radius                 ....   0.400
   Minimum AH scaling param. (alpha)    ....   1.000
   Maximum AH scaling param. (alpha)    .... 1000.000
   Orbital update algorithm             .... Taylor
   White noise on init. David. guess    .... on
   Maximum white noise                  ....   0.010
   Quad. conv. algorithm                .... NR
 SOSCF                  CNVSOSCF        .... on
   Start iteration      SOSCFMaxIt      ....   150
   Startup grad/error   SOSCFStart      ....  0.003300
 Level Shifting         CNVShift        .... on
   Level shift para.    LevelShift      ....    0.2500
   Turn off err/grad.   ShiftErr        ....    0.0010
 Zerner damping         CNVZerner       .... off
 Static damping         CNVDamp         .... on
   Fraction old density DampFac         ....    0.7000
   Max. Damping (<1)    DampMax         ....    0.9800
   Min. Damping (>=0)   DampMin         ....    0.0000
   Turn off err/grad.   DampErr         ....    0.1000
 Fernandez-Rico         CNVRico         .... off

SCF Procedure:
 Maximum # iterations   MaxIter         ....   125
 SCF integral mode      SCFMode         .... Direct
   Integral package                     .... SHARK and LIBINT hybrid scheme
 Reset frequency        DirectResetFreq ....    20
 Integral Threshold     Thresh          ....  2.500e-11 Eh
 Primitive CutOff       TCut            ....  2.500e-12 Eh

Convergence Tolerance:
 Convergence Check Mode ConvCheckMode   .... Total+1el-Energy
 Convergence forced     ConvForced      .... 0
 Energy Change          TolE            ....  1.000e-08 Eh
 1-El. energy change                    ....  1.000e-05 Eh
 Orbital Gradient       TolG            ....  1.000e-05
 Orbital Rotation angle TolX            ....  1.000e-05
 DIIS Error             TolErr          ....  5.000e-07


Diagonalization of the overlap matrix:
Smallest eigenvalue                        ... 1.484e-06
Time for diagonalization                   ...    0.335 sec
Threshold for overlap eigenvalues          ... 1.000e-08
Number of eigenvalues below threshold      ... 0
Time for construction of square roots      ...    0.224 sec
Total time needed                          ...    0.565 sec

Time for model grid setup =    0.589 sec

------------------------------
INITIAL GUESS: MODEL POTENTIAL
------------------------------
Loading Hartree-Fock densities                     ... done
Calculating cut-offs                               ... done
Initializing the effective Hamiltonian             ... done
Setting up the integral package (SHARK)            ... done
Starting the Coulomb interaction                   ... done (   2.5 sec)
Reading the grid                                   ... done
Mapping shells                                     ... done
Starting the XC term evaluation                    ... done (   1.9 sec)
  promolecular density results
     # of electrons  =    149.995041599
     EX              =   -158.427558112
     EC              =     -5.320251645
     EX+EC           =   -163.747809757
Transforming the Hamiltonian                       ... done (   0.2 sec)
Diagonalizing the Hamiltonian                      ... done (   0.4 sec)
Back transforming the eigenvectors                 ... done (   0.1 sec)
Now organizing SCF variables                       ... done
                      ------------------
                      INITIAL GUESS DONE (   5.6 sec)
                      ------------------
-------------------
DFT GRID GENERATION
-------------------

General Integration Accuracy     IntAcc      ... 4.388
Radial Grid Type                 RadialGrid  ... OptM3 with GC (2021)
Angular Grid (max. ang.)         AngularGrid ... 4 (Lebedev-302)
Angular grid pruning method      GridPruning ... 4 (adaptive)
Weight generation scheme         WeightScheme... Becke
Basis function cutoff            BFCut       ... 1.0000e-11
Integration weight cutoff        WCut        ... 1.0000e-14
Angular grids for H and He will be reduced by one unit
Partially contracted basis set               ... off
Rotationally invariant grid construction     ... off

Total number of grid points                  ...   145831
Total number of batches                      ...     2293
Average number of points per batch           ...       63
Average number of grid points per atom       ...     5401
Time for grid setup =    2.197 sec

--------------------
COSX GRID GENERATION
--------------------

GRIDX 1
-------
General Integration Accuracy     IntAcc      ... 3.816
Radial Grid Type                 RadialGrid  ... OptM3 with GC (2021)
Angular Grid (max. ang.)         AngularGrid ... 1 (Lebedev-50)
Angular grid pruning method      GridPruning ... 4 (adaptive)
Weight generation scheme         WeightScheme... Becke
Basis function cutoff            BFCut       ... 1.0000e-11
Integration weight cutoff        WCut        ... 1.0000e-14
Angular grids for H and He will be reduced by one unit
Partially contracted basis set               ... on
Rotationally invariant grid construction     ... off

Total number of grid points                  ...    18267
Total number of batches                      ...      301
Average number of points per batch           ...       60
Average number of grid points per atom       ...      677
UseSFitting                                  ... on

GRIDX 2
-------
General Integration Accuracy     IntAcc      ... 4.020
Radial Grid Type                 RadialGrid  ... OptM3 with GC (2021)
Angular Grid (max. ang.)         AngularGrid ... 2 (Lebedev-110)
Angular grid pruning method      GridPruning ... 4 (adaptive)
Weight generation scheme         WeightScheme... Becke
Basis function cutoff            BFCut       ... 1.0000e-11
Integration weight cutoff        WCut        ... 1.0000e-14
Angular grids for H and He will be reduced by one unit
Partially contracted basis set               ... on
Rotationally invariant grid construction     ... off

Total number of grid points                  ...    44672
Total number of batches                      ...      713
Average number of points per batch           ...       62
Average number of grid points per atom       ...     1655
UseSFitting                                  ... on

GRIDX 3
-------
General Integration Accuracy     IntAcc      ... 4.338
Radial Grid Type                 RadialGrid  ... OptM3 with GC (2021)
Angular Grid (max. ang.)         AngularGrid ... 3 (Lebedev-194)
Angular grid pruning method      GridPruning ... 4 (adaptive)
Weight generation scheme         WeightScheme... Becke
Basis function cutoff            BFCut       ... 1.0000e-11
Integration weight cutoff        WCut        ... 1.0000e-14
Angular grids for H and He will be reduced by one unit
Partially contracted basis set               ... on
Rotationally invariant grid construction     ... off

Total number of grid points                  ...    98478
Total number of batches                      ...     1551
Average number of points per batch           ...       63
Average number of grid points per atom       ...     3647
UseSFitting                                  ... on

Time for X-Grid setup             =    6.217 sec


--------------------
CPCM SOLVATION MODEL
--------------------
CPCM parameters:
  Epsilon                                         ...      46.8260
  Refrac                                          ...       1.4170
  Rsolv                                           ...       1.3000
  Surface type                                    ... GAUSSIAN VDW
  Epsilon function type                           ...         CPCM
Solvent:                                     ... DIMETHYLSULFOXIDE
SMD-CDS solvent descriptors:
  Soln                                       ...    1.4170
  Soln25                                     ...    1.4773
  Sola                                       ...    0.0000
  Solb                                       ...    0.8800
  Solg                                       ...   61.7800
  Solc                                       ...    0.0000
  Solh                                       ...    0.0000
Radii:
 Radius for C  used is    3.4960 Bohr (=   1.8500 Ang.)
 Radius for N  used is    3.5716 Bohr (=   1.8900 Ang.)
 Radius for S  used is    4.7054 Bohr (=   2.4900 Ang.)
 Radius for H  used is    2.2677 Bohr (=   1.2000 Ang.)
Calculating surface                               ...        done! (  0.0s)
GEPOL surface points                              ...         1465
GEPOL Volume                                      ...    2155.4536
GEPOL Surface-area                                ...    1112.2083
Calculating surface distance matrix               ...        done! (  0.0s)
Performing Cholesky decomposition & store         ...        done! ( 12.7s)
Overall time for CPCM initialization              ...                12.8s
 re-compute Schwartz prescreening matrix in partically contracted basis (1) ...done (   0.276 sec)
--------------
SCF ITERATIONS
--------------
ITER       Energy         Delta-E        Max-DP      RMS-DP      [F,P]     Damp
               ***  Starting incremental Fock matrix formation  ***
  0  -1821.0579268780   0.000000000000 0.09598062  0.00082372  0.2154938 0.7000
  1  -1821.2513913756  -0.193464497623 0.05635648  0.00061183  0.1108809 0.7000
                               ***Turning on DIIS***
  2  -1821.3469072487  -0.095515873048 0.12546569  0.00135479  0.0521492 0.0000
  3  -1821.4946828880  -0.147775639289 0.04488715  0.00045977  0.0542407 0.0000
  4  -1821.5252712350  -0.030588347032 0.03044638  0.00022975  0.0084865 0.0000
  5  -1821.5270929340  -0.001821698997 0.01746926  0.00010274  0.0072854 0.0000
  6  -1821.5277782310  -0.000685296986 0.00881586  0.00005710  0.0015849 0.0000
                      *** Initiating the SOSCF procedure ***
                           *** Shutting down DIIS ***
                      *** Re-Reading the Fockian *** 
                      *** Removing any level shift *** 
ITER      Energy       Delta-E        Grad      Rot      Max-DP    RMS-DP
  7  -1821.52810975  -0.0003315213  0.002636  0.002636  0.003769  0.000040
               *** Restarting incremental Fock matrix formation ***
  8  -1821.52829380  -0.0001840495  0.000520  0.001938  0.056580  0.000436
  9  -1821.52830711  -0.0000133056  0.000376  0.002026  0.028326  0.000218
 10  -1821.52831674  -0.0000096290  0.000075  0.000597  0.019996  0.000153
 11  -1821.52831756  -0.0000008245  0.000056  0.000177  0.008344  0.000063
 12  -1821.52831802  -0.0000004610  0.000018  0.000092  0.002028  0.000020
 13  -1821.52831801   0.0000000076  0.000022  0.000147  0.003025  0.000019
 14  -1821.52831802  -0.0000000014  0.000011  0.000153  0.002673  0.000015
 15  -1821.52831802  -0.0000000015  0.000003  0.000028  0.001514  0.000009
                  ***Gradient check signals convergence***
              ***Rediagonalizing the Fockian in SOSCF/NRSCF***

               *****************************************************
               *                     SUCCESS                       *
               *           SCF CONVERGED AFTER  16 CYCLES          *
               *****************************************************

Old exchange energy                            =    -47.494977633 Eh
New exchange energy                            =    -47.494893884 Eh
Exchange energy change after final integration =      0.000083749 Eh
Total energy after final integration           =  -1821.528234296 Eh
Final COS-X integration done in                =   190.293 sec

SMD CDS free energy correction energy :                 0.54159     Kcal/mol
Total Energy after SMD CDS correction =             -1821.527371219 Eh

----------------
TOTAL SCF ENERGY
----------------

Total Energy       :        -1821.52737122 Eh          -49566.27967 eV

Components:
Nuclear Repulsion  :         1485.58698474 Eh           40424.87702 eV
Electronic Energy  :        -3307.11435596 Eh          -89991.15669 eV
One Electron Energy:        -5452.43490667 Eh         -148368.29671 eV
Two Electron Energy:         2145.32055071 Eh           58377.14002 eV
Max COSX asymmetry :            0.00001917 Eh               0.00052 eV
CPCM Dielectric    :           -0.02180435 Eh              -0.59333 eV
SMD CDS (Gcds)     :            0.00086308 Eh               0.02349 eV

Virial components:
Potential Energy   :        -3636.32292162 Eh          -98949.37719 eV
Kinetic Energy     :         1814.79555040 Eh           49383.09751 eV
Virial Ratio       :            2.00370941


DFT components:
N(Alpha)           :       75.000004629444 electrons
N(Beta)            :       75.000004629444 electrons
N(Total)           :      150.000009258888 electrons
E(XC)              :     -118.699147919572 Eh       
DFET-embed. en.    :        0.000000000000 Eh       
CPCM Solvation Model Properties:
Surface-charge          :           -0.04139051
Charge-correction       :            0.00001929 Eh               0.00052 eV
Free-energy (cav+disp)  :            0.00086308 Eh               0.02349 eV

---------------
SCF CONVERGENCE
---------------

  Last Energy change         ...   -2.7855e-08  Tolerance :   1.0000e-08
  Last MAX-Density change    ...    3.1086e-15  Tolerance :   1.0000e-07
  Last RMS-Density change    ...    1.6050e-17  Tolerance :   5.0000e-09
  Last Orbital Gradient      ...    1.2181e-06  Tolerance :   1.0000e-05
  Last Orbital Rotation      ...    3.8751e-06  Tolerance :   1.0000e-05

             **** THE GBW FILE WAS UPDATED (wb97x-d3-train-15.gbw) ****
             **** DENSITY wb97x-d3-train-15.scfp WAS UPDATED ****
             **** ENERGY FILE WAS UPDATED (wb97x-d3-train-15.en.tmp) ****
             **** THE GBW FILE WAS UPDATED (wb97x-d3-train-15.gbw) ****
             **** DENSITY wb97x-d3-train-15.scfp WAS UPDATED ****
----------------
ORBITAL ENERGIES
----------------

  NO   OCC          E(Eh)            E(eV) 
   0   2.0000     -89.027024     -2422.5485 
   1   2.0000     -89.019507     -2422.3439 
   2   2.0000     -89.016626     -2422.2656 
   3   2.0000     -14.497992      -394.5104 
   4   2.0000     -14.482109      -394.0782 
   5   2.0000     -14.437148      -392.8548 
   6   2.0000     -10.372783      -282.2578 
   7   2.0000     -10.349159      -281.6149 
   8   2.0000     -10.348676      -281.6018 
   9   2.0000     -10.330766      -281.1144 
  10   2.0000     -10.328915      -281.0641 
  11   2.0000     -10.315439      -280.6974 
  12   2.0000     -10.306562      -280.4558 
  13   2.0000     -10.305683      -280.4319 
  14   2.0000     -10.298432      -280.2346 
  15   2.0000     -10.294193      -280.1192 
  16   2.0000     -10.287965      -279.9498 
  17   2.0000     -10.277622      -279.6683 
  18   2.0000      -8.100404      -220.4232 
  19   2.0000      -8.092850      -220.2176 
  20   2.0000      -8.089345      -220.1223 
  21   2.0000      -6.054527      -164.7521 
  22   2.0000      -6.050870      -164.6525 
  23   2.0000      -6.047930      -164.5725 
  24   2.0000      -6.047025      -164.5479 
  25   2.0000      -6.043216      -164.4443 
  26   2.0000      -6.043132      -164.4420 
  27   2.0000      -6.040572      -164.3723 
  28   2.0000      -6.039881      -164.3535 
  29   2.0000      -6.037177      -164.2799 
  30   2.0000      -1.175017       -31.9738 
  31   2.0000      -1.098291       -29.8860 
  32   2.0000      -1.035184       -28.1688 
  33   2.0000      -1.010396       -27.4943 
  34   2.0000      -0.957451       -26.0536 
  35   2.0000      -0.935021       -25.4432 
  36   2.0000      -0.889459       -24.2034 
  37   2.0000      -0.875050       -23.8113 
  38   2.0000      -0.859839       -23.3974 
  39   2.0000      -0.847699       -23.0671 
  40   2.0000      -0.816888       -22.2286 
  41   2.0000      -0.786337       -21.3973 
  42   2.0000      -0.716680       -19.5018 
  43   2.0000      -0.716480       -19.4964 
  44   2.0000      -0.676273       -18.4023 
  45   2.0000      -0.669878       -18.2283 
  46   2.0000      -0.648752       -17.6534 
  47   2.0000      -0.638705       -17.3801 
  48   2.0000      -0.629657       -17.1338 
  49   2.0000      -0.593742       -16.1566 
  50   2.0000      -0.575049       -15.6479 
  51   2.0000      -0.572296       -15.5730 
  52   2.0000      -0.561895       -15.2900 
  53   2.0000      -0.539562       -14.6822 
  54   2.0000      -0.537233       -14.6189 
  55   2.0000      -0.522454       -14.2167 
  56   2.0000      -0.515735       -14.0339 
  57   2.0000      -0.505176       -13.7465 
  58   2.0000      -0.503098       -13.6900 
  59   2.0000      -0.500482       -13.6188 
  60   2.0000      -0.500069       -13.6076 
  61   2.0000      -0.479083       -13.0365 
  62   2.0000      -0.468792       -12.7565 
  63   2.0000      -0.468708       -12.7542 
  64   2.0000      -0.455683       -12.3998 
  65   2.0000      -0.447897       -12.1879 
  66   2.0000      -0.439135       -11.9495 
  67   2.0000      -0.390508       -10.6263 
  68   2.0000      -0.385771       -10.4974 
  69   2.0000      -0.378370       -10.2960 
  70   2.0000      -0.364384        -9.9154 
  71   2.0000      -0.351627        -9.5683 
  72   2.0000      -0.349847        -9.5198 
  73   2.0000      -0.330630        -8.9969 
  74   2.0000      -0.271713        -7.3937 
  75   0.0000      -0.061927        -1.6851 
  76   0.0000       0.017476         0.4755 
  77   0.0000       0.047891         1.3032 
  78   0.0000       0.049837         1.3561 
  79   0.0000       0.056832         1.5465 
  80   0.0000       0.058711         1.5976 
  81   0.0000       0.059321         1.6142 
  82   0.0000       0.064567         1.7570 
  83   0.0000       0.068939         1.8759 
  84   0.0000       0.072748         1.9796 
  85   0.0000       0.078243         2.1291 
  86   0.0000       0.079370         2.1598 
  87   0.0000       0.080794         2.1985 
  88   0.0000       0.084133         2.2894 
  89   0.0000       0.084526         2.3001 
  90   0.0000       0.087139         2.3712 
  91   0.0000       0.092384         2.5139 
  92   0.0000       0.095552         2.6001 
  93   0.0000       0.098794         2.6883 
  94   0.0000       0.101734         2.7683 
  95   0.0000       0.103813         2.8249 
  96   0.0000       0.105083         2.8595 
  97   0.0000       0.105653         2.8750 
  98   0.0000       0.110249         3.0000 
  99   0.0000       0.114247         3.1088 
 100   0.0000       0.118293         3.2189 
 101   0.0000       0.120256         3.2723 
 102   0.0000       0.122107         3.3227 
 103   0.0000       0.125738         3.4215 
 104   0.0000       0.131949         3.5905 
 105   0.0000       0.133833         3.6418 
 106   0.0000       0.137863         3.7515 
 107   0.0000       0.138727         3.7750 
 108   0.0000       0.145293         3.9536 
 109   0.0000       0.148150         4.0314 
 110   0.0000       0.149787         4.0759 
 111   0.0000       0.152778         4.1573 
 112   0.0000       0.155536         4.2323 
 113   0.0000       0.156291         4.2529 
 114   0.0000       0.160682         4.3724 
 115   0.0000       0.161739         4.4011 
 116   0.0000       0.164768         4.4836 
 117   0.0000       0.170454         4.6383 
 118   0.0000       0.172103         4.6832 
 119   0.0000       0.173651         4.7253 
 120   0.0000       0.176581         4.8050 
 121   0.0000       0.177858         4.8398 
 122   0.0000       0.180008         4.8983 
 123   0.0000       0.182505         4.9662 
 124   0.0000       0.186973         5.0878 
 125   0.0000       0.190242         5.1767 
 126   0.0000       0.193867         5.2754 
 127   0.0000       0.195851         5.3294 
 128   0.0000       0.196888         5.3576 
 129   0.0000       0.200473         5.4551 
 130   0.0000       0.202284         5.5044 
 131   0.0000       0.205035         5.5793 
 132   0.0000       0.206166         5.6101 
 133   0.0000       0.213090         5.7985 
 134   0.0000       0.215051         5.8518 
 135   0.0000       0.216860         5.9011 
 136   0.0000       0.217573         5.9205 
 137   0.0000       0.220487         5.9997 
 138   0.0000       0.225880         6.1465 
 139   0.0000       0.226864         6.1733 
 140   0.0000       0.232051         6.3144 
 141   0.0000       0.238349         6.4858 
 142   0.0000       0.239313         6.5120 
 143   0.0000       0.240774         6.5518 
 144   0.0000       0.245848         6.6899 
 145   0.0000       0.247578         6.7369 
 146   0.0000       0.254507         6.9255 
 147   0.0000       0.257534         7.0079 
 148   0.0000       0.259569         7.0632 
 149   0.0000       0.260489         7.0883 
 150   0.0000       0.262522         7.1436 
 151   0.0000       0.272021         7.4021 
 152   0.0000       0.274393         7.4666 
 153   0.0000       0.277694         7.5564 
 154   0.0000       0.279845         7.6150 
 155   0.0000       0.286860         7.8059 
 156   0.0000       0.291090         7.9210 
 157   0.0000       0.293917         7.9979 
 158   0.0000       0.304131         8.2758 
 159   0.0000       0.304872         8.2960 
 160   0.0000       0.306225         8.3328 
 161   0.0000       0.310777         8.4567 
 162   0.0000       0.311515         8.4767 
 163   0.0000       0.318401         8.6641 
 164   0.0000       0.320365         8.7176 
 165   0.0000       0.321436         8.7467 
 166   0.0000       0.326553         8.8859 
 167   0.0000       0.327466         8.9108 
 168   0.0000       0.332529         9.0486 
 169   0.0000       0.335727         9.1356 
 170   0.0000       0.339272         9.2321 
 171   0.0000       0.342861         9.3297 
 172   0.0000       0.344135         9.3644 
 173   0.0000       0.345237         9.3944 
 174   0.0000       0.349577         9.5125 
 175   0.0000       0.352041         9.5795 
 176   0.0000       0.355871         9.6837 
 177   0.0000       0.358959         9.7678 
 178   0.0000       0.359560         9.7841 
 179   0.0000       0.368229        10.0200 
 180   0.0000       0.371919        10.1204 
 181   0.0000       0.372322        10.1314 
 182   0.0000       0.377763        10.2795 
 183   0.0000       0.385753        10.4969 
 184   0.0000       0.386759        10.5242 
 185   0.0000       0.391817        10.6619 
 186   0.0000       0.395658        10.7664 
 187   0.0000       0.398966        10.8564 
 188   0.0000       0.406939        11.0734 
 189   0.0000       0.407945        11.1008 
 190   0.0000       0.409876        11.1533 
 191   0.0000       0.413505        11.2520 
 192   0.0000       0.416058        11.3215 
 193   0.0000       0.422085        11.4855 
 194   0.0000       0.423790        11.5319 
 195   0.0000       0.425498        11.5784 
 196   0.0000       0.427088        11.6217 
 197   0.0000       0.430093        11.7034 
 198   0.0000       0.431204        11.7337 
 199   0.0000       0.432463        11.7679 
 200   0.0000       0.435833        11.8596 
 201   0.0000       0.438215        11.9244 
 202   0.0000       0.439772        11.9668 
 203   0.0000       0.444814        12.1040 
 204   0.0000       0.445956        12.1351 
 205   0.0000       0.451711        12.2917 
 206   0.0000       0.458231        12.4691 
 207   0.0000       0.459317        12.4986 
 208   0.0000       0.463442        12.6109 
 209   0.0000       0.466096        12.6831 
 210   0.0000       0.470551        12.8043 
 211   0.0000       0.472807        12.8657 
 212   0.0000       0.476699        12.9716 
 213   0.0000       0.479522        13.0485 
 214   0.0000       0.485675        13.2159 
 215   0.0000       0.486196        13.2301 
 216   0.0000       0.488409        13.2903 
 217   0.0000       0.493011        13.4155 
 218   0.0000       0.494627        13.4595 
 219   0.0000       0.502319        13.6688 
 220   0.0000       0.504428        13.7262 
 221   0.0000       0.506281        13.7766 
 222   0.0000       0.508534        13.8379 
 223   0.0000       0.512842        13.9551 
 224   0.0000       0.515654        14.0317 
 225   0.0000       0.517842        14.0912 
 226   0.0000       0.519748        14.1431 
 227   0.0000       0.523911        14.2563 
 228   0.0000       0.524695        14.2777 
 229   0.0000       0.529232        14.4011 
 230   0.0000       0.531424        14.4608 
 231   0.0000       0.533794        14.5253 
 232   0.0000       0.540574        14.7098 
[...]
   Maximum residual norm  :     0.000180561971
   Rebuilding the expansion space

                       ****Iteration    5****
   Time for densities:            0.511
   Time for RI-J (Direct):       18.756
   Time for K (COSX):            95.998
   Time for XC-Integration:      36.207
   Time for LR-CPCM terms:       18.956
   Time for Sigma-Completion:     0.386
   Size of expansion space: 20
   Lowest Energy          :     0.108785970061
   Maximum Energy change  :     0.000222194708 (vector 8)
   Maximum residual norm  :     0.000030504647

                       ****Iteration    6****
   Time for densities:            0.203
   Time for RI-J (Direct):       16.220
   Time for K (COSX):            56.941
   Time for XC-Integration:      17.916
   Time for LR-CPCM terms:       11.273
   Time for Sigma-Completion:     0.173
   Size of expansion space: 30
   Lowest Energy          :     0.108785952655
   Maximum Energy change  :     0.000062694884 (vector 8)
   Maximum residual norm  :     0.000007366991

                       ****Iteration    7****
   Time for densities:            0.319
   Time for RI-J (Direct):       15.810
   Time for K (COSX):            57.824
   Time for XC-Integration:      17.658
   Time for LR-CPCM terms:       10.775
   Time for Sigma-Completion:     0.151
   Size of expansion space: 40
   Lowest Energy          :     0.108785950772
   Maximum Energy change  :     0.000070123080 (vector 9)
   Maximum residual norm  :     0.000048943206

                       ****Iteration    8****
   Time for densities:            0.227
   Time for RI-J (Direct):       15.339
   Time for K (COSX):            52.140
   Time for XC-Integration:      17.175
   Time for LR-CPCM terms:       11.431
   Time for Sigma-Completion:     0.224
   Size of expansion space: 50
   Lowest Energy          :     0.108785950598
   Maximum Energy change  :     0.001248865303 (vector 9)
   Maximum residual norm  :     0.000759047738

                       ****Iteration    9****
   Time for densities:            0.221
   Time for RI-J (Direct):       15.080
   Time for K (COSX):            53.018
   Time for XC-Integration:      17.982
   Time for LR-CPCM terms:       11.447
   Time for Sigma-Completion:     0.154
   Size of expansion space: 60
   Lowest Energy          :     0.108785950582
   Maximum Energy change  :     0.001839989309 (vector 9)
   Maximum residual norm  :     0.000229172862

                       ****Iteration   10****
   Time for densities:            0.242
   Time for RI-J (Direct):       15.116
   Time for K (COSX):            52.903
   Time for XC-Integration:      17.399
   Time for LR-CPCM terms:       12.502
   Time for Sigma-Completion:     0.171
   Size of expansion space: 70
   Lowest Energy          :     0.108785950580
   Maximum Energy change  :     0.000542660271 (vector 8)
   Maximum residual norm  :     0.000108028971
   Rebuilding the expansion space

                       ****Iteration   11****
   Time for densities:            0.432
   Time for RI-J (Direct):       19.670
   Time for K (COSX):            93.772
   Time for XC-Integration:      35.830
   Time for LR-CPCM terms:       19.178
   Time for Sigma-Completion:     0.296
   Size of expansion space: 20
   Lowest Energy          :     0.108785950239
   Maximum Energy change  :     0.000194669808 (vector 8)
   Maximum residual norm  :     0.000045426730

                       ****Iteration   12****
   Time for densities:            0.199
   Time for RI-J (Direct):       15.680
   Time for K (COSX):            56.240
   Time for XC-Integration:      18.694
   Time for LR-CPCM terms:       12.267
   Time for Sigma-Completion:     0.179
   Size of expansion space: 30
   Lowest Energy          :     0.108785950238
   Maximum Energy change  :     0.000132017675 (vector 8)
   Maximum residual norm  :     0.000030012323

                       ****Iteration   13****
   Time for densities:            0.210
   Time for RI-J (Direct):       14.880
   Time for K (COSX):            49.254
   Time for XC-Integration:      14.437
   Time for LR-CPCM terms:       10.456
   Time for Sigma-Completion:     0.124
   Size of expansion space: 39
   Lowest Energy          :     0.108785950238
   Maximum Energy change  :     0.000079478723 (vector 8)
   Maximum residual norm  :     0.000021570661

                       ****Iteration   14****
   Time for densities:            0.171
   Time for RI-J (Direct):       14.215
   Time for K (COSX):            48.156
   Time for XC-Integration:      17.102
   Time for LR-CPCM terms:       10.062
   Time for Sigma-Completion:     0.138
   Size of expansion space: 48
   Lowest Energy          :     0.108785950238
   Maximum Energy change  :     0.000045913410 (vector 8)
   Maximum residual norm  :     0.000007854424

                       ****Iteration   15****
   Time for densities:            0.186
   Time for RI-J (Direct):       13.006
   Time for K (COSX):            47.100
   Time for XC-Integration:      16.149
   Time for LR-CPCM terms:       10.285
   Time for Sigma-Completion:     0.142
   Size of expansion space: 57
   Lowest Energy          :     0.108785950238
   Maximum Energy change  :     0.000017961157 (vector 8)
   Maximum residual norm  :     0.000003043404

                       ****Iteration   16****
   Time for densities:            0.170
   Time for RI-J (Direct):       12.663
   Time for K (COSX):            44.899
   Time for XC-Integration:      14.397
   Time for LR-CPCM terms:       10.038
   Time for Sigma-Completion:     0.152
   Size of expansion space: 66
   Lowest Energy          :     0.108785950238
   Maximum Energy change  :     0.000005743518 (vector 8)
   Maximum residual norm  :     0.000001048869
   Rebuilding the expansion space

                       ****Iteration   17****
   Time for densities:            0.378
   Time for RI-J (Direct):       17.029
   Time for K (COSX):            80.494
   Time for XC-Integration:      29.082
   Time for LR-CPCM terms:       16.352
   Time for Sigma-Completion:     0.268
   Size of expansion space: 19
   Lowest Energy          :     0.108785950229
   Maximum Energy change  :     0.000001704674 (vector 8)
   Maximum residual norm  :     0.000000375103

      *** CONVERGENCE OF RESIDUAL NORM REACHED ***

Storing the converged CI vectors               ... wb97x-d3-train-15_job2.cis1

                 *** DAVIDSON DONE ***

Total time for solving the CIS problem:  2159.656sec

------------------------------------
TD-DFT/TDA EXCITED STATES (SINGLETS)
------------------------------------

the weight of the individual excitations are printed if larger than 1.0e-02

STATE  1:  E=   0.108786 au      2.960 eV    23875.8 cm**-1 <S**2> =   0.000000
    67a ->  75a  :     0.010029 (c=  0.10014727)
    71a ->  75a  :     0.857319 (c=  0.92591499)
    71a ->  76a  :     0.045004 (c= -0.21214195)
    74a ->  75a  :     0.032428 (c=  0.18007882)

STATE  2:  E=   0.112632 au      3.065 eV    24719.8 cm**-1 <S**2> =   0.000000
    68a ->  75a  :     0.010305 (c= -0.10151236)
    71a ->  75a  :     0.032517 (c= -0.18032395)
    73a ->  75a  :     0.019105 (c=  0.13821904)
    73a ->  76a  :     0.027343 (c= -0.16535792)
    74a ->  75a  :     0.870584 (c=  0.93305109)

STATE  3:  E=   0.160153 au      4.358 eV    35149.5 cm**-1 <S**2> =   0.000000
    69a ->  75a  :     0.029052 (c= -0.17044562)
    70a ->  75a  :     0.028746 (c= -0.16954616)
    72a ->  75a  :     0.010051 (c=  0.10025389)
    73a ->  75a  :     0.625685 (c=  0.79100271)
    74a ->  76a  :     0.218538 (c= -0.46748074)

STATE  4:  E=   0.170774 au      4.647 eV    37480.6 cm**-1 <S**2> =   0.000000
    70a ->  75a  :     0.630713 (c= -0.79417461)
    72a ->  75a  :     0.181757 (c=  0.42632998)
    73a ->  75a  :     0.069023 (c= -0.26272207)
    74a ->  76a  :     0.017229 (c= -0.13125884)

STATE  5:  E=   0.179317 au      4.879 eV    39355.6 cm**-1 <S**2> =   0.000000
    67a ->  75a  :     0.811166 (c=  0.90064768)
    67a ->  76a  :     0.081591 (c= -0.28564106)
    67a ->  81a  :     0.010663 (c=  0.10326406)
    67a ->  85a  :     0.016324 (c=  0.12776607)
    74a ->  76a  :     0.011803 (c= -0.10864071)

STATE  6:  E=   0.180191 au      4.903 eV    39547.5 cm**-1 <S**2> =   0.000000
    67a ->  75a  :     0.020900 (c=  0.14456961)
    68a ->  75a  :     0.030796 (c=  0.17548826)
    69a ->  75a  :     0.057947 (c= -0.24072123)
    70a ->  75a  :     0.038304 (c= -0.19571306)
    72a ->  75a  :     0.047825 (c=  0.21868818)
    73a ->  75a  :     0.098945 (c=  0.31455505)
    73a ->  76a  :     0.050045 (c= -0.22370837)
    74a ->  76a  :     0.547356 (c=  0.73983524)
    74a ->  81a  :     0.014101 (c=  0.11874736)

STATE  7:  E=   0.192179 au      5.229 eV    42178.5 cm**-1 <S**2> =   0.000000
    70a ->  75a  :     0.185174 (c= -0.43031863)
    70a ->  76a  :     0.019786 (c= -0.14066380)
    72a ->  75a  :     0.425702 (c= -0.65245875)
    72a ->  76a  :     0.260169 (c= -0.51006745)
    74a ->  76a  :     0.015115 (c=  0.12294223)

STATE  8:  E=   0.193695 au      5.271 eV    42511.1 cm**-1 <S**2> =   0.000000
    68a ->  75a  :     0.071645 (c= -0.26766507)
    68a ->  76a  :     0.022447 (c=  0.14982297)
    69a ->  75a  :     0.724355 (c= -0.85109028)
    69a ->  76a  :     0.037255 (c=  0.19301535)
    72a ->  75a  :     0.011192 (c= -0.10579084)
    73a ->  75a  :     0.054596 (c= -0.23365893)

STATE  9:  E=   0.212139 au      5.773 eV    46559.0 cm**-1 <S**2> =   0.000000
    68a ->  87a  :     0.010499 (c=  0.10246672)
    74a ->  77a  :     0.026913 (c=  0.16405303)
    74a ->  80a  :     0.055347 (c=  0.23525993)
    74a ->  82a  :     0.011204 (c= -0.10585117)
    74a ->  83a  :     0.129540 (c=  0.35991713)
    74a ->  86a  :     0.101446 (c=  0.31850535)
    74a ->  87a  :     0.234542 (c= -0.48429580)
    74a ->  92a  :     0.143374 (c= -0.37864813)
    74a ->  93a  :     0.012093 (c=  0.10996637)
    74a ->  94a  :     0.050792 (c= -0.22537000)
    74a ->  96a  :     0.025540 (c=  0.15981308)
    74a ->  97a  :     0.031772 (c=  0.17824638)
    74a ->  99a  :     0.014641 (c=  0.12099984)

STATE 10:  E=   0.213162 au      5.800 eV    46783.6 cm**-1 <S**2> =   0.000000
    68a ->  75a  :     0.504843 (c= -0.71052299)
    68a ->  76a  :     0.020859 (c= -0.14442512)
    69a ->  75a  :     0.028117 (c=  0.16768224)
    70a ->  76a  :     0.024328 (c= -0.15597537)
    73a ->  75a  :     0.041976 (c=  0.20488146)
    73a ->  76a  :     0.097465 (c=  0.31219382)
    73a ->  81a  :     0.021009 (c= -0.14494504)
    74a ->  76a  :     0.069031 (c=  0.26273783)
    74a ->  81a  :     0.053093 (c= -0.23042010)


-----------------------------
TD-DFT/TDA-EXCITATION SPECTRA
-----------------------------

Center of mass = (  0.6742, -0.1226, -0.5621)
Calculating the Dipole integrals                  ... done
Transforming integrals                            ... done
Calculating the Linear Momentum integrals         ... done
Transforming integrals                            ... done
Calculating angular momentum integrals            ... done
Transforming integrals                            ... done

-----------------------------------------------------------------------------
         ABSORPTION SPECTRUM VIA TRANSITION ELECTRIC DIPOLE MOMENTS
-----------------------------------------------------------------------------
State   Energy    Wavelength  fosc         T2        TX        TY        TZ  
        (cm-1)      (nm)                 (au**2)    (au)      (au)      (au) 
-----------------------------------------------------------------------------
   1   23875.8    418.8   0.044875988   0.61877   0.78627  -0.01254  -0.02007
   2   24719.8    404.5   1.355170842  18.04779   4.24633  -0.12587  -0.02580
   3   35149.5    284.5   0.047884898   0.44849  -0.26277  -0.45975  -0.40997
   4   37480.6    266.8   0.082241555   0.72237   0.28391   0.61713   0.51080
   5   39355.6    254.1   0.002055416   0.01719  -0.10375  -0.01278  -0.07916
   6   39547.5    252.9   0.059728849   0.49721   0.60144   0.29495   0.22020
   7   42178.5    237.1   0.135380423   1.05667   0.22626   0.77535   0.63586
   8   42511.1    235.2   0.098293264   0.76120  -0.86003  -0.09962  -0.10781
   9   46559.0    214.8   0.000397664   0.00281  -0.02785   0.00369   0.04498
  10   46783.6    213.8   0.014108130   0.09928  -0.09393   0.22400   0.20069

-----------------------------------------------------------------------------
         ABSORPTION SPECTRUM VIA TRANSITION VELOCITY DIPOLE MOMENTS
-----------------------------------------------------------------------------
State   Energy    Wavelength   fosc        P2         PX        PY        PZ  
        (cm-1)      (nm)                 (au**2)     (au)      (au)      (au) 
-----------------------------------------------------------------------------
   1   23875.8    418.8   0.023830260   0.00389  -0.06193   0.00226   0.00692
   2   24719.8    404.5   0.731355356   0.12356  -0.35031   0.02473   0.01518
   3   35149.5    284.5   0.019913814   0.00478   0.00322   0.05326   0.04401
   4   37480.6    266.8   0.006684150   0.00171  -0.03821   0.01301   0.00912
   5   39355.6    254.1   0.000644241   0.00017   0.00944   0.00804  -0.00441
   6   39547.5    252.9   0.010263777   0.00277  -0.04809  -0.01400  -0.01630
   7   42178.5    237.1   0.004642041   0.00134  -0.03649   0.00218   0.00145
   8   42511.1    235.2   0.041915717   0.01218   0.09085  -0.04806  -0.04017
   9   46559.0    214.8   0.002275235   0.00072   0.00105   0.01687  -0.02094
  10   46783.6    213.8   0.000917837   0.00029  -0.01448  -0.00832  -0.00381

-------------------------------------------------------------------
                             CD SPECTRUM
-------------------------------------------------------------------
State  Energy     Wavelength     R         MX        MY        MZ   
       (cm-1)       (nm)     (1e40*cgs)   (au)      (au)      (au)  
-------------------------------------------------------------------
   1   23875.8    418.8    123.80343   0.33828   0.00708   0.16373
   2   24719.8    404.5    -115.85108  -0.06737  -0.41156   0.44427
   3   35149.5    284.5      0.54619  -0.00285  -0.22582   0.25224
   4   37480.6    266.8      1.20592  -0.00055   0.02077  -0.01978
   5   39355.6    254.1    -20.23368   0.37146   0.03903   0.04903
   6   39547.5    252.9     17.68983   0.05384   0.06396  -0.06233
   7   42178.5    237.1      0.27811  -0.00469  -0.12743   0.15799
   8   42511.1    235.2     -1.34444   0.00738   0.17105  -0.19047
   9   46559.0    214.8      1.17257   0.01323   0.08555   0.05648
  10   46783.6    213.8     -0.30722  -0.00319   0.10372  -0.12051

-------------------------------------------------------------------
         CD SPECTRUM VIA TRANSITION VELOCITY DIPOLE MOMENTS        
-------------------------------------------------------------------
State  Energy     Wavelength     R         MX        MY        MZ   
       (cm-1)       (nm)     (1e40*cgs)   (au)      (au)      (au)  
-------------------------------------------------------------------
   1   23875.8    418.8    -85.81556   0.33828   0.00708   0.16373
   2   24719.8    404.5     84.40726  -0.06737  -0.41156   0.44427
   3   35149.5    284.5     -2.75379  -0.00285  -0.22582   0.25224
   4   37480.6    266.8      0.30537  -0.00055   0.02077  -0.01978
   5   39355.6    254.1      9.47776   0.37146   0.03903   0.04903
   6   39547.5    252.9     -6.45975   0.05384   0.06396  -0.06233
   7   42178.5    237.1      0.30099  -0.00469  -0.12743   0.15799
   8   42511.1    235.2      0.24524   0.00738   0.17105  -0.19047
   9   46559.0    214.8      0.60996   0.01323   0.08555   0.05648
  10   46783.6    213.8     -0.79240  -0.00319   0.10372  -0.12051

Total run time:     2167.735 sec

           *** ORCA-CIS/TD-DFT FINISHED WITHOUT ERROR ***

Maximum memory used throughout the entire CIS-calculation: 1420.5 MB

-----------------------
CIS/TD-DFT TOTAL ENERGY
-----------------------

    E(SCF)  =  -1821.539151391 Eh
    DE(CIS) =      0.108785950 Eh (Root  1)
    ----------------------------- ---------
    E(tot)  =  -1821.430365441 Eh



-------------------------------------------------------------------------------
                          DFT DISPERSION CORRECTION                            
                                                                               
                              DFTD3 V3.1  Rev 1                                
                              USING zero damping                               
-------------------------------------------------------------------------------
The omegaB97X-D3 functional is recognized. Fit by Chai et al.
Active option DFTDOPT                   ...         3   

molecular C6(AA) [au] = 14525.409542 


            DFT-D V3
 parameters
 s6 scaling factor         :     1.0000 
 rs6 scaling factor        :     1.2810 
 s8 scaling factor         :     1.0000 
 rs8 scaling factor        :     1.0940 
 Damping factor alpha6     :    14.0000 
 Damping factor alpha8     :    16.0000 
 ad hoc parameters k1-k3   :    16.0000     1.3333    -4.0000 

 Edisp/kcal,au: -5.802784573231  -0.009247324852 
 E6   /kcal   :  -2.410569948 
 E8   /kcal   :  -3.392214625 
 % E8         :  58.458393254 

-------------------------   ----------------
Dispersion correction           -0.009247325
-------------------------   ----------------


-------------------------   --------------------
FINAL SINGLE POINT ENERGY     -1821.439612766108
-------------------------   --------------------


                            ***************************************
                            *     ORCA property calculations      *
                            ***************************************

                                    ---------------------
                                    Active property flags
                                    ---------------------
   (+) Dipole Moment


------------------------------------------------------------------------------
                       ORCA ELECTRIC PROPERTIES CALCULATION
------------------------------------------------------------------------------

Dipole Moment Calculation                       ... on
Quadrupole Moment Calculation                   ... off
Polarizability Calculation                      ... off
GBWName                                         ... wb97x-d3-train-15_job2.gbw
Electron density                                ... wb97x-d3-train-15_job2.scfp
The origin for moment calculation is the CENTER OF MASS  = ( 0.674238, -0.122634 -0.562084)

-------------
DIPOLE MOMENT
-------------
                                X             Y             Z
Electronic contribution:      8.00613      -1.76222      -1.51576
Nuclear contribution   :     -7.33404       2.62294       2.32258
                        -----------------------------------------
Total Dipole Moment    :      0.67209       0.86071       0.80681
                        -----------------------------------------
Magnitude (a.u.)       :      1.35775
Magnitude (Debye)      :      3.45112



--------------------
Rotational spectrum 
--------------------
 
Rotational constants in cm-1:     0.050455     0.003411     0.003197 
Rotational constants in MHz :  1512.590689   102.245413    95.834765 

 Dipole components along the rotational axes: 
x,y,z [a.u.] :     0.631688     1.200458     0.057871 
x,y,z [Debye]:     1.605622     3.051323     0.147097 

 

Timings for individual modules:

Sum of individual times         ...     2999.593 sec (=  49.993 min)
GTO integral calculation        ...        6.369 sec (=   0.106 min)   0.2 %
SCF iterations                  ...      824.604 sec (=  13.743 min)  27.5 %
CIS module                      ...     2168.620 sec (=  36.144 min)  72.3 %



                             ****ORCA TERMINATED NORMALLY****
TOTAL RUN TIME: 0 days 5 hours 11 minutes 54 seconds 141 msec
