
                                 *****************
                                 * O   R   C   A *
                                 *****************

                                            #,                                       
                                            ###                                      
                                            ####                                     
                                            #####                                    
                                            ######                                   
                                           ########,                                 
                                     ,,################,,,,,                         
                               ,,#################################,,                 
                          ,,##########################################,,             
                       ,#########################################, ''#####,          
                    ,#############################################,,   '####,        
                  ,##################################################,,,,####,       
                ,###########''''           ''''###############################       
              ,#####''   ,,,,##########,,,,          '''####'''          '####       
            ,##' ,,,,###########################,,,                        '##       
           ' ,,###''''                  '''############,,,                           
         ,,##''                                '''############,,,,        ,,,,,,###''
      ,#''                                            '''#######################'''  
     '                                                          ''''####''''         
             ,#######,   #######,   ,#######,      ##                                
            ,#'     '#,  ##    ##  ,#'     '#,    #''#        ######   ,####,        
            ##       ##  ##   ,#'  ##            #'  '#       #        #'  '#        
            ##       ##  #######   ##           ,######,      #####,   #    #        
            '#,     ,#'  ##    ##  '#,     ,#' ,#      #,         ##   #,  ,#        
             '#######'   ##     ##  '#######'  #'      '#     #####' # '####'        



                  #######################################################
                  #                        -***-                        #
                  #          Department of theory and spectroscopy      #
                  #    Directorship and core code : Frank Neese         #
                  #        Max Planck Institute fuer Kohlenforschung    #
                  #                Kaiser Wilhelm Platz 1               #
                  #                 D-45470 Muelheim/Ruhr               #
                  #                      Germany                        #
                  #                                                     #
                  #                  All rights reserved                #
                  #                        -***-                        #
                  #######################################################


                         Program Version 5.0.2 -  RELEASE  -


 With contributions from (in alphabetic order):
   Daniel Aravena         : Magnetic Suceptibility
   Michael Atanasov       : Ab Initio Ligand Field Theory (pilot matlab implementation)
   Alexander A. Auer      : GIAO ZORA, VPT2 properties, NMR spectrum
   Ute Becker             : Parallelization
   Giovanni Bistoni       : ED, misc. LED, open-shell LED, HFLD
   Martin Brehm           : Molecular dynamics
   Dmytro Bykov           : SCF Hessian
   Vijay G. Chilkuri      : MRCI spin determinant printing, contributions to CSF-ICE
   Dipayan Datta          : RHF DLPNO-CCSD density
   Achintya Kumar Dutta   : EOM-CC, STEOM-CC
   Dmitry Ganyushin       : Spin-Orbit,Spin-Spin,Magnetic field MRCI
   Miquel Garcia          : C-PCM and meta-GGA Hessian, CC/C-PCM, Gaussian charge scheme
   Yang Guo               : DLPNO-NEVPT2, F12-NEVPT2, CIM, IAO-localization
   Andreas Hansen         : Spin unrestricted coupled pair/coupled cluster methods
   Benjamin Helmich-Paris : MC-RPA, TRAH-SCF, COSX integrals
   Lee Huntington         : MR-EOM, pCC
   Robert Izsak           : Overlap fitted RIJCOSX, COSX-SCS-MP3, EOM
   Marcus Kettner         : VPT2
   Christian Kollmar      : KDIIS, OOCD, Brueckner-CCSD(T), CCSD density, CASPT2, CASPT2-K
   Simone Kossmann        : Meta GGA functionals, TD-DFT gradient, OOMP2, MP2 Hessian
   Martin Krupicka        : Initial AUTO-CI
   Lucas Lang             : DCDCAS
   Marvin Lechner         : AUTO-CI (C++ implementation), FIC-MRCC
   Dagmar Lenk            : GEPOL surface, SMD
   Dimitrios Liakos       : Extrapolation schemes; Compound Job, initial MDCI parallelization
   Dimitrios Manganas     : Further ROCIS development; embedding schemes
   Dimitrios Pantazis     : SARC Basis sets
   Anastasios Papadopoulos: AUTO-CI, single reference methods and gradients
   Taras Petrenko         : DFT Hessian,TD-DFT gradient, ASA, ECA, R-Raman, ABS, FL, XAS/XES, NRVS
   Peter Pinski           : DLPNO-MP2, DLPNO-MP2 Gradient
   Christoph Reimann      : Effective Core Potentials
   Marius Retegan         : Local ZFS, SOC
   Christoph Riplinger    : Optimizer, TS searches, QM/MM, DLPNO-CCSD(T), (RO)-DLPNO pert. Triples
   Tobias Risthaus        : Range-separated hybrids, TD-DFT gradient, RPA, STAB
   Michael Roemelt        : Original ROCIS implementation
   Masaaki Saitow         : Open-shell DLPNO-CCSD energy and density
   Barbara Sandhoefer     : DKH picture change effects
   Avijit Sen             : IP-ROCIS
   Kantharuban Sivalingam : CASSCF convergence, NEVPT2, FIC-MRCI
   Bernardo de Souza      : ESD, SOC TD-DFT
   Georgi Stoychev        : AutoAux, RI-MP2 NMR, DLPNO-MP2 response
   Willem Van den Heuvel  : Paramagnetic NMR
   Boris Wezisla          : Elementary symmetry handling
   Frank Wennmohs         : Technical directorship


 We gratefully acknowledge several colleagues who have allowed us to
 interface, adapt or use parts of their codes:
   Stefan Grimme, W. Hujo, H. Kruse, P. Pracht,  : VdW corrections, initial TS optimization,
                  C. Bannwarth, S. Ehlert          DFT functionals, gCP, sTDA/sTD-DF
   Ed Valeev, F. Pavosevic, A. Kumar             : LibInt (2-el integral package), F12 methods
   Garnet Chan, S. Sharma, J. Yang, R. Olivares  : DMRG
   Ulf Ekstrom                                   : XCFun DFT Library
   Mihaly Kallay                                 : mrcc  (arbitrary order and MRCC methods)
   Jiri Pittner, Ondrej Demel                    : Mk-CCSD
   Frank Weinhold                                : gennbo (NPA and NBO analysis)
   Christopher J. Cramer and Donald G. Truhlar   : smd solvation model
   Lars Goerigk                                  : TD-DFT with DH, B97 family of functionals
   V. Asgeirsson, H. Jonsson                     : NEB implementation
   FAccTs GmbH                                   : IRC, NEB, NEB-TS, DLPNO-Multilevel, CI-OPT
                                                   MM, QMMM, 2- and 3-layer-ONIOM, Crystal-QMMM,
                                                   LR-CPCM, SF, NACMEs, symmetry and pop. for TD-DFT,
                                                   nearIR, NL-DFT gradient (VV10), updates on ESD,
                                                   ML-optimized integration grids
   S Lehtola, MJT Oliveira, MAL Marques          : LibXC Library
   Liviu Ungur et al                             : ANISO software


 Your calculation uses the libint2 library for the computation of 2-el integrals
 For citations please refer to: http://libint.valeyev.net

 Your ORCA version has been built with support for libXC version: 5.1.0
 For citations please refer to: https://tddft.org/programs/libxc/

 This ORCA versions uses:
   CBLAS   interface :  Fast vector & matrix operations
   LAPACKE interface :  Fast linear algebra routines
   SCALAPACK package :  Parallel linear algebra routines
   Shared memory     :  Shared parallel matrices
   BLAS/LAPACK       :  OpenBLAS 0.3.15  USE64BITINT DYNAMIC_ARCH NO_AFFINITY Haswell SINGLE_THREADED
        Core in use  :  Haswell
   Copyright (c) 2011-2014, The OpenBLAS Project


Your calculation utilizes the SMD solvation module
Please cite in your paper:
A.V. Marenich, C.J. Cramer, D.G. Truhlar J. Phys. Chem. B, 113, (2009), 6378 

================================================================================

----- Orbital basis set information -----
Your calculation utilizes the basis: aug-cc-pVTZ 
    H, B-Ne : Obtained from the ccRepo (grant-hill.group.shef.ac.uk/ccrepo) Feb. 2017
              R. A. Kendall, T. H. Dunning, Jr., R. J. Harrison, J. Chem. Phys. 96, 6796 (1992)
         He : Obtained from the ccRepo (grant-hill.group.shef.ac.uk/ccrepo) Feb. 2017
              D. E. Woon, T. H. Dunning, Jr., J. Chem. Phys. 100, 2975 (1994)
  Li-Be, Na : Obtained from the ccRepo (grant-hill.group.shef.ac.uk/ccrepo) Feb. 2017
              B. P. Prascher, D. E. Woon, K. A. Peterson, T. H. Dunning, Jr., A. K. Wilson, Theor. Chem. Acc. 128, 69 (2011)
         Mg : Obtained from the Peterson Research Group Website (tyr0.chem.wsu.edu/~kipeters) Feb. 2017
              B. P. Prascher, D. E. Woon, K. A. Peterson, T. H. Dunning, Jr., A. K. Wilson, Theor. Chem. Acc. 128, 69 (2011)
      Al-Ar : Obtained from the ccRepo (grant-hill.group.shef.ac.uk/ccrepo) Feb. 2017
              D. E. Woon, T. H. Dunning, Jr., J. Chem. Phys. 98, 1358 (1993)
      Sc-Zn : Obtained from the ccRepo (grant-hill.group.shef.ac.uk/ccrepo) Feb. 2017
              N. B. Balabanov, K. A. Peterson, J. Chem. Phys. 123, 064107 (2005)
              N. B. Balabanov, K. A. Peterson, J. Chem. Phys. 125, 074110 (2006)
      Ga-Kr : Obtained from the ccRepo (grant-hill.group.shef.ac.uk/ccrepo) Feb. 2017
              A. K. Wilson, D. E. Woon, K. A. Peterson, T. H. Dunning, Jr., J. Chem. Phys. 110, 7667 (1999)
     Ag, Au : Obtained from the Peterson Research Group Website (tyr0.chem.wsu.edu/~kipeters) Feb. 2017
              K. A. Peterson, C. Puzzarini, Theor. Chem. Acc. 114, 283 (2005)

The basis set includes element-specific modifications.

Your calculation utilizes the basis: cc-pVTZ 
       H, B-Ne : Obtained from the ccRepo (grant-hill.group.shef.ac.uk/ccrepo) Feb. 2017
                 T. H. Dunning, Jr., J. Chem. Phys. 90, 1007 (1989)
            He : Obtained from the ccRepo (grant-hill.group.shef.ac.uk/ccrepo) Feb. 2017
                 D. E. Woon, T. H. Dunning, Jr., J. Chem. Phys. 100, 2975 (1994)
  Li-Be, Na-Mg : Obtained from the ccRepo (grant-hill.group.shef.ac.uk/ccrepo) Feb. 2017
                 B. P. Prascher, D. E. Woon, K. A. Peterson, T. H. Dunning, Jr., A. K. Wilson, Theor. Chem. Acc. 128, 69 (2011)
         Al-Ar : Obtained from the ccRepo (grant-hill.group.shef.ac.uk/ccrepo) Feb. 2017
                 D. E. Woon, T. H. Dunning, Jr., J. Chem. Phys. 98, 1358 (1993)
            Ca : Obtained from the Peterson Research Group Website (tyr0.chem.wsu.edu/~kipeters) Feb. 2017
                 J. Koput, K. A. Peterson, J. Phys. Chem. 106, 9595 (2002)
         Sc-Zn : Obtained from the ccRepo (grant-hill.group.shef.ac.uk/ccrepo) Feb. 2017
                 N. B. Balabanov, K. A. Peterson, J. Chem. Phys. 123, 064107 (2005)
                 N. B. Balabanov, K. A. Peterson, J. Chem. Phys. 125, 074110 (2006)
         Ga-Kr : Obtained from the ccRepo (grant-hill.group.shef.ac.uk/ccrepo) Feb. 2017
                 A. K. Wilson, D. E. Woon, K. A. Peterson, T. H. Dunning, Jr., J. Chem. Phys. 110, 7667 (1999)
             Y : Obtained from the ccRepo (grant-hill.group.shef.ac.uk/ccrepo) Feb. 2017
                 K. A. Peterson, D. Figgen, M. Dolg, H. Stoll, J. Chem. Phys. 126, 124101 (2007)
        Ag, Au : Obtained from the Peterson Research Group Website (tyr0.chem.wsu.edu/~kipeters) Feb. 2017
                 K. A. Peterson, C. Puzzarini, Theor. Chem. Acc. 114, 283 (2005)

----- AuxJ basis set information -----
Your calculation utilizes the auxiliary basis: aug-cc-pVTZ/JK 
  H, B-F, Al-Cl, Ga-Br : Obtained from the TURBOMOLE 7.0 basis set library

The basis set includes element-specific modifications.

Your calculation utilizes the auxiliary basis: cc-pVTZ/JK 
  H, B-F, Al-Cl, Ga-Br : Obtained from the TURBOMOLE 7.0 basis set library

----- AuxC basis set information -----
Your calculation utilizes the auxiliary basis: aug-cc-pVTZ/C 
  H-He, B-F, Al-Ar, Ga-Kr : Obtained from the EMSL Basis Set Exchange (bse.pnl.gov) Feb. 2017
                            F. Weigend, A. Kohn, C. Hattig, J. Chem. Phys. 116, 3175 (2002)
                   Be, Mg : Obtained from the TURBOMOLE 7.0 basis set library
                            C. Haettig, Phys. Chem. Chem. Phys. 7, 59 (2005)
                       Ne : Obtained from the EMSL Basis Set Exchange (bse.pnl.gov) Feb. 2017
                            C. Haettig, Phys. Chem. Chem. Phys. 7, 59 (2005)
                            F. Weigend, A. Kohn, C. Hattig, J. Chem. Phys. 116, 3175 (2002)
                    Sc-Zn : Obtained from the EMSL Basis Set Exchange (bse.pnl.gov) Feb. 2017
                            J. G. Hill, J. A. Platts, J. Chem. Phys. 128, 044104 (2008)

The basis set includes element-specific modifications.

Your calculation utilizes the auxiliary basis: cc-pVTZ/C 
  Obtained from the EMSL Basis Set Exchange (bse.pnl.gov) Feb. 2017
  H-He, B-F, Al-Ar, Ga-Kr : F. Weigend, A. Kohn, C. Hattig, J. Chem. Phys. 116, 3175 (2002)
             Li-Be, Na-Mg : C. Haettig, Phys. Chem. Chem. Phys. 7, 59 (2005)
                       Ne : C. Haettig, Phys. Chem. Chem. Phys. 7, 59 (2005)
                            F. Weigend, A. Kohn, C. Hattig, J. Chem. Phys. 116, 3175 (2002)
                    Sc-Zn : J. G. Hill, J. A. Platts, J. Chem. Phys. 128, 044104 (2008)

================================================================================
                                        WARNINGS
                       Please study these warnings very carefully!
================================================================================


WARNING: Geometry Optimization
  ===> : Switching off AutoStart
         For restart on a previous wavefunction, please use MOREAD

INFO   : the flag for use of the SHARK integral package has been found!



***************************************
The coordinates will be read from file: 
***************************************


Your calculation utilizes the SMD solvation module
Please cite in your paper:
A.V. Marenich, C.J. Cramer, D.G. Truhlar J. Phys. Chem. B, 113, (2009), 6378 

================================================================================

----- Orbital basis set information -----
Your calculation utilizes the basis: aug-cc-pVTZ 
    H, B-Ne : Obtained from the ccRepo (grant-hill.group.shef.ac.uk/ccrepo) Feb. 2017
              R. A. Kendall, T. H. Dunning, Jr., R. J. Harrison, J. Chem. Phys. 96, 6796 (1992)
         He : Obtained from the ccRepo (grant-hill.group.shef.ac.uk/ccrepo) Feb. 2017
              D. E. Woon, T. H. Dunning, Jr., J. Chem. Phys. 100, 2975 (1994)
  Li-Be, Na : Obtained from the ccRepo (grant-hill.group.shef.ac.uk/ccrepo) Feb. 2017
              B. P. Prascher, D. E. Woon, K. A. Peterson, T. H. Dunning, Jr., A. K. Wilson, Theor. Chem. Acc. 128, 69 (2011)
         Mg : Obtained from the Peterson Research Group Website (tyr0.chem.wsu.edu/~kipeters) Feb. 2017
              B. P. Prascher, D. E. Woon, K. A. Peterson, T. H. Dunning, Jr., A. K. Wilson, Theor. Chem. Acc. 128, 69 (2011)
      Al-Ar : Obtained from the ccRepo (grant-hill.group.shef.ac.uk/ccrepo) Feb. 2017
              D. E. Woon, T. H. Dunning, Jr., J. Chem. Phys. 98, 1358 (1993)
      Sc-Zn : Obtained from the ccRepo (grant-hill.group.shef.ac.uk/ccrepo) Feb. 2017
              N. B. Balabanov, K. A. Peterson, J. Chem. Phys. 123, 064107 (2005)
              N. B. Balabanov, K. A. Peterson, J. Chem. Phys. 125, 074110 (2006)
      Ga-Kr : Obtained from the ccRepo (grant-hill.group.shef.ac.uk/ccrepo) Feb. 2017
              A. K. Wilson, D. E. Woon, K. A. Peterson, T. H. Dunning, Jr., J. Chem. Phys. 110, 7667 (1999)
     Ag, Au : Obtained from the Peterson Research Group Website (tyr0.chem.wsu.edu/~kipeters) Feb. 2017
              K. A. Peterson, C. Puzzarini, Theor. Chem. Acc. 114, 283 (2005)

The basis set includes element-specific modifications.

Your calculation utilizes the basis: cc-pVTZ 
       H, B-Ne : Obtained from the ccRepo (grant-hill.group.shef.ac.uk/ccrepo) Feb. 2017
                 T. H. Dunning, Jr., J. Chem. Phys. 90, 1007 (1989)
            He : Obtained from the ccRepo (grant-hill.group.shef.ac.uk/ccrepo) Feb. 2017
                 D. E. Woon, T. H. Dunning, Jr., J. Chem. Phys. 100, 2975 (1994)
  Li-Be, Na-Mg : Obtained from the ccRepo (grant-hill.group.shef.ac.uk/ccrepo) Feb. 2017
                 B. P. Prascher, D. E. Woon, K. A. Peterson, T. H. Dunning, Jr., A. K. Wilson, Theor. Chem. Acc. 128, 69 (2011)
         Al-Ar : Obtained from the ccRepo (grant-hill.group.shef.ac.uk/ccrepo) Feb. 2017
                 D. E. Woon, T. H. Dunning, Jr., J. Chem. Phys. 98, 1358 (1993)
            Ca : Obtained from the Peterson Research Group Website (tyr0.chem.wsu.edu/~kipeters) Feb. 2017
                 J. Koput, K. A. Peterson, J. Phys. Chem. 106, 9595 (2002)
         Sc-Zn : Obtained from the ccRepo (grant-hill.group.shef.ac.uk/ccrepo) Feb. 2017
                 N. B. Balabanov, K. A. Peterson, J. Chem. Phys. 123, 064107 (2005)
                 N. B. Balabanov, K. A. Peterson, J. Chem. Phys. 125, 074110 (2006)
         Ga-Kr : Obtained from the ccRepo (grant-hill.group.shef.ac.uk/ccrepo) Feb. 2017
                 A. K. Wilson, D. E. Woon, K. A. Peterson, T. H. Dunning, Jr., J. Chem. Phys. 110, 7667 (1999)
             Y : Obtained from the ccRepo (grant-hill.group.shef.ac.uk/ccrepo) Feb. 2017
                 K. A. Peterson, D. Figgen, M. Dolg, H. Stoll, J. Chem. Phys. 126, 124101 (2007)
        Ag, Au : Obtained from the Peterson Research Group Website (tyr0.chem.wsu.edu/~kipeters) Feb. 2017
                 K. A. Peterson, C. Puzzarini, Theor. Chem. Acc. 114, 283 (2005)

----- AuxJ basis set information -----
Your calculation utilizes the auxiliary basis: aug-cc-pVTZ/JK 
  H, B-F, Al-Cl, Ga-Br : Obtained from the TURBOMOLE 7.0 basis set library

The basis set includes element-specific modifications.

Your calculation utilizes the auxiliary basis: cc-pVTZ/JK 
  H, B-F, Al-Cl, Ga-Br : Obtained from the TURBOMOLE 7.0 basis set library

----- AuxC basis set information -----
Your calculation utilizes the auxiliary basis: aug-cc-pVTZ/C 
  H-He, B-F, Al-Ar, Ga-Kr : Obtained from the EMSL Basis Set Exchange (bse.pnl.gov) Feb. 2017
                            F. Weigend, A. Kohn, C. Hattig, J. Chem. Phys. 116, 3175 (2002)
                   Be, Mg : Obtained from the TURBOMOLE 7.0 basis set library
                            C. Haettig, Phys. Chem. Chem. Phys. 7, 59 (2005)
                       Ne : Obtained from the EMSL Basis Set Exchange (bse.pnl.gov) Feb. 2017
                            C. Haettig, Phys. Chem. Chem. Phys. 7, 59 (2005)
                            F. Weigend, A. Kohn, C. Hattig, J. Chem. Phys. 116, 3175 (2002)
                    Sc-Zn : Obtained from the EMSL Basis Set Exchange (bse.pnl.gov) Feb. 2017
                            J. G. Hill, J. A. Platts, J. Chem. Phys. 128, 044104 (2008)

The basis set includes element-specific modifications.

Your calculation utilizes the auxiliary basis: cc-pVTZ/C 
  Obtained from the EMSL Basis Set Exchange (bse.pnl.gov) Feb. 2017
  H-He, B-F, Al-Ar, Ga-Kr : F. Weigend, A. Kohn, C. Hattig, J. Chem. Phys. 116, 3175 (2002)
             Li-Be, Na-Mg : C. Haettig, Phys. Chem. Chem. Phys. 7, 59 (2005)
                       Ne : C. Haettig, Phys. Chem. Chem. Phys. 7, 59 (2005)
                            F. Weigend, A. Kohn, C. Hattig, J. Chem. Phys. 116, 3175 (2002)
                    Sc-Zn : J. G. Hill, J. A. Platts, J. Chem. Phys. 128, 044104 (2008)

================================================================================
                                        WARNINGS
                       Please study these warnings very carefully!
================================================================================

INFO   : Checking CIS options ...

INFO   : the flag for use of the SHARK integral package has been found!

================================================================================
                                       INPUT FILE
================================================================================
NAME = x3lyp-train-15.inp
|  1> ! x3lyp aug-cc-PVTZ RIJCOSX Opt
|  2> %maxcore 4000
|  3> %basis
|  4>  AuxJ "aug-cc-PVTZ/JK"
|  5>  AuxC "aug-cc-PVTZ/C"
|  6>  newGTO H "cc-PVTZ" end
|  7>  newAuxJGTO H "cc-PVTZ/JK" end
|  8>  newAuxCGTO H "cc-PVTZ/C" end
|  9> end
| 10> %cpcm
| 11>  SMD true
| 12>  SMDsolvent "dimethylsulfoxide"
| 13> end
| 14> %pal nprocs 4 end
| 15> * xyz 0 1
| 16> C         -6.40460        1.20310        0.64210
| 17> C         -5.24970        0.46740        0.07220
| 18> C         -5.28390       -0.60600       -0.78920
| 19> N         -4.10750       -1.10170       -1.17240
| 20> C         -3.10180       -0.47260       -0.65330
| 21> N         -1.84160       -0.77160       -0.88030
| 22> N         -0.94070       -0.06400       -0.28470
| 23> C          0.33600       -0.36430       -0.52760
| 24> C          0.92970       -1.31870       -1.34880
| 25> C          2.31270       -1.28290       -1.30880
| 26> C          2.81780       -0.30790       -0.46080
| 27> C          4.18450       -0.01940       -0.19830
| 28> C          4.70860        0.93560        0.64110
| 29> C          6.11230        0.94260        0.65870
| 30> C          6.65350        0.00020       -0.16130
| 31> S          5.45820       -0.92080       -0.97660
| 32> S          1.54470        0.58790        0.30300
| 33> S         -3.62590        0.89480        0.43750
| 34> H         -7.33680        0.75810        0.30210
| 35> H         -6.37820        2.24890        0.33630
| 36> H         -6.37380        1.17710        1.73100
| 37> H         -6.18500       -1.05910       -1.16430
| 38> H          0.33790       -1.99490       -1.93880
| 39> H          2.95460       -1.93830       -1.87160
| 40> H          4.09050        1.60000        1.21750
| 41> H          6.69910        1.61820        1.25460
| 42> H          7.68910       -0.21160       -0.33850
| 43> *
| 44> 
| 45> 
| 46> $new_job
| 47> ! x3lyp aug-cc-PVTZ RIJCOSX SP
| 48> %maxcore 4000
| 49> %basis
| 50>  AuxJ "aug-cc-PVTZ/JK"
| 51>  AuxC "aug-cc-PVTZ/C"
| 52>  newGTO H "cc-PVTZ" end
| 53>  newAuxJGTO H "cc-PVTZ/JK" end
| 54>  newAuxCGTO H "cc-PVTZ/C" end
| 55> end
| 56> %cpcm
| 57>  SMD true
| 58>  SMDsolvent "dimethylsulfoxide"
| 59> end
| 60> %pal nprocs 4 end
| 61> %tddft
| 62>  nroots 10
| 63>  maxdim 7
| 64> end
| 65> * xyzfile 0 1
| 66> 
| 67>                          ****END OF INPUT****
================================================================================


                 $$$$$$$$$$$$$$$$$$$$$$$$$$$$$$$$$$$$$$$$$$$$$$ 
                 $ THERE ARE  2 JOBS TO BE PROCESSED THIS RUN $
                 $$$$$$$$$$$$$$$$$$$$$$$$$$$$$$$$$$$$$$$$$$$$$$ 




                 $$$$$$$$$$$$$$$$  JOB NUMBER  1 $$$$$$$$$$$$$$


                       *****************************
                       * Geometry Optimization Run *
                       *****************************

Geometry optimization settings:
Update method            Update   .... BFGS
Choice of coordinates    CoordSys .... Z-matrix Internals
Initial Hessian          InHess   .... Almoef's Model

Convergence Tolerances:
Energy Change            TolE     ....  5.0000e-06 Eh
Max. Gradient            TolMAXG  ....  3.0000e-04 Eh/bohr
RMS Gradient             TolRMSG  ....  1.0000e-04 Eh/bohr
Max. Displacement        TolMAXD  ....  4.0000e-03 bohr
RMS Displacement         TolRMSD  ....  2.0000e-03 bohr
Strict Convergence                ....  False
------------------------------------------------------------------------------
                        ORCA OPTIMIZATION COORDINATE SETUP
------------------------------------------------------------------------------

The optimization will be done in new redundant internal coordinates
Making redundant internal coordinates   ...  (new redundants) done
Evaluating the initial hessian          ...  (Almloef) done
Evaluating the coordinates              ...  done
Calculating the B-matrix                .... done
Calculating the G-matrix                .... done
Diagonalizing the G-matrix              .... done
Small eigenvalue found = 1.880e-03
Small eigenvalue found = 9.429e-03
Small eigenvalue found = 1.737e-02
Small eigenvalue found = 1.920e-02
Small eigenvalue found = 2.312e-02
The first mode is                       ....   58
The number of degrees of freedom        ....   75

    -----------------------------------------------------------------
                    Redundant Internal Coordinates


    -----------------------------------------------------------------
         Definition                    Initial Value    Approx d2E/dq
    -----------------------------------------------------------------
      1. B(C   1,C   0)                  1.4832         0.443680   
      2. B(C   2,C   1)                  1.3767         0.656025   
      3. B(N   3,C   2)                  1.3328         0.690338   
      4. B(C   4,N   3)                  1.2949         0.793714   
      5. B(N   5,C   4)                  1.3149         0.737308   
      6. B(N   6,N   5)                  1.2911         0.720655   
      7. B(C   7,N   6)                  1.3338         0.687807   
      8. B(C   8,C   7)                  1.3920         0.620170   
      9. B(C   9,C   8)                  1.3840         0.638624   
     10. B(C  10,C   9)                  1.3874         0.630813   
     11. B(C  11,C  10)                  1.4213         0.556993   
     12. B(C  12,C  11)                  1.3752         0.659598   
     13. B(C  13,C  12)                  1.4038         0.593851   
     14. B(C  14,C  13)                  1.3614         0.694009   
     15. B(S  15,C  11)                  1.7437         0.459364   
     16. B(S  15,C  14)                  1.7151         0.510235   
     17. B(S  16,C  10)                  1.7340         0.476139   
     18. B(S  16,C   7)                  1.7486         0.451245   
     19. B(S  17,C   4)                  1.8260         0.339533   
     20. B(S  17,C   1)                  1.7184         0.504187   
     21. B(H  18,C   0)                  1.0875         0.363444   
     22. B(H  19,C   0)                  1.0899         0.360216   
     23. B(H  20,C   0)                  1.0896         0.360569   
     24. B(H  21,C   2)                  1.0761         0.378972   
     25. B(H  22,C   8)                  1.0750         0.380533   
     26. B(H  23,C   9)                  1.0763         0.378747   
     27. B(H  24,C  12)                  1.0750         0.380443   
     28. B(H  25,C  13)                  1.0751         0.380343   
     29. B(H  26,C  14)                  1.0718         0.385018   
     30. A(H  18,C   0,H  20)          109.0807         0.291322   
     31. A(C   1,C   0,H  20)          110.4954         0.333732   
     32. A(C   1,C   0,H  18)          110.1432         0.334172   
     33. A(H  19,C   0,H  20)          107.6133         0.290914   
     34. A(C   1,C   0,H  19)          110.4435         0.333677   
     35. A(H  18,C   0,H  19)          109.0069         0.291277   
     36. A(C   2,C   1,S  17)          110.5123         0.445940   
     37. A(C   0,C   1,S  17)          122.0560         0.415702   
     38. A(C   0,C   1,C   2)          127.4316         0.413013   
     39. A(N   3,C   2,H  21)          118.8342         0.360300   
     40. A(C   1,C   2,H  21)          124.5546         0.359413   
     41. A(C   1,C   2,N   3)          116.6112         0.444164   
     42. A(C   2,N   3,C   4)          112.9278         0.456763   
     43. A(N   5,C   4,S  17)          123.2627         0.421372   
     44. A(N   3,C   4,S  17)          112.3572         0.426964   
     45. A(N   3,C   4,N   5)          124.3799         0.462283   
     46. A(C   4,N   5,N   6)          117.6752         0.451148   
     47. A(N   5,N   6,C   7)          117.4174         0.445496   
     48. A(N   6,C   7,C   8)          132.0685         0.439383   
     49. A(C   8,C   7,S  16)          111.0245         0.432689   
     50. A(N   6,C   7,S  16)          116.9060         0.437941   
     51. A(C   9,C   8,H  22)          125.6084         0.358022   
     52. A(C   7,C   8,H  22)          121.3501         0.356243   
     53. A(C   7,C   8,C   9)          113.0414         0.436407   
     54. A(C  10,C   9,H  23)          122.0351         0.356989   
     55. A(C   8,C   9,H  23)          124.4096         0.357736   
     56. A(C   8,C   9,C  10)          113.5552         0.437747   
     57. A(C   9,C  10,C  11)          127.2739         0.427117   
     58. A(C  11,C  10,S  16)          121.3188         0.428534   
     59. A(C   9,C  10,S  16)          111.4073         0.438234   
     60. A(C  12,C  11,S  15)          110.6731         0.438927   
     61. A(C  10,C  11,S  15)          120.9996         0.425789   
     62. A(C  10,C  11,C  12)          128.3273         0.430550   
     63. A(C  11,C  12,C  13)          113.0900         0.435539   
     64. A(C  11,C  12,H  24)          122.5009         0.359983   
     65. A(C  13,C  12,H  24)          124.4092         0.353619   
     66. A(C  12,C  13,C  14)          112.7364         0.439551   
     67. A(C  14,C  13,H  25)          123.4953         0.363104   
     68. A(C  12,C  13,H  25)          123.7683         0.353603   
     69. A(S  15,C  14,H  26)          119.2536         0.363375   
     70. A(C  13,C  14,H  26)          128.3516         0.363863   
     71. A(C  13,C  14,S  15)          112.3948         0.451493   
     72. A(C  11,S  15,C  14)           91.1058         0.442350   
     73. A(C   7,S  16,C  10)           90.9714         0.435460   
     74. A(C   1,S  17,C   4)           87.5915         0.418094   
     75. D(C   2,C   1,C   0,H  20)    122.0347         0.014522   
     76. D(S  17,C   1,C   0,H  18)   -178.7265         0.014522   
     77. D(S  17,C   1,C   0,H  19)     60.8127         0.014522   
     78. D(C   2,C   1,C   0,H  18)      1.4483         0.014522   
     79. D(S  17,C   1,C   0,H  20)    -58.1401         0.014522   
     80. D(C   2,C   1,C   0,H  19)   -119.0125         0.014522   
     81. D(N   3,C   2,C   1,S  17)     -0.0721         0.030005   
     82. D(H  21,C   2,C   1,S  17)    179.9598         0.030005   
     83. D(H  21,C   2,C   1,C   0)     -0.1984         0.030005   
     84. D(N   3,C   2,C   1,C   0)    179.7697         0.030005   
     85. D(C   4,N   3,C   2,H  21)   -179.9482         0.035595   
     86. D(C   4,N   3,C   2,C   1)      0.0817         0.035595   
     87. D(S  17,C   4,N   3,C   2)     -0.0518         0.048463   
     88. D(N   5,C   4,N   3,C   2)   -179.8732         0.048463   
     89. D(N   6,N   5,C   4,N   3)   -179.4409         0.041138   
     90. D(N   6,N   5,C   4,S  17)      0.7566         0.041138   
     91. D(C   7,N   6,N   5,C   4)   -179.4365         0.040845   
     92. D(S  16,C   7,N   6,N   5)   -179.1778         0.035310   
     93. D(C   8,C   7,N   6,N   5)      1.2188         0.035310   
     94. D(H  22,C   8,C   7,S  16)   -179.9138         0.026615   
     95. D(H  22,C   8,C   7,N   6)     -0.2927         0.026615   
     96. D(C   9,C   8,C   7,S  16)      0.0131         0.026615   
     97. D(C   9,C   8,C   7,N   6)    179.6342         0.026615   
     98. D(H  23,C   9,C   8,H  22)     -0.0571         0.028328   
     99. D(H  23,C   9,C   8,C   7)   -179.9803         0.028328   
    100. D(C  10,C   9,C   8,H  22)    179.9846         0.028328   
    101. D(C  10,C   9,C   8,C   7)      0.0614         0.028328   
    102. D(S  16,C  10,C   9,H  23)    179.9324         0.027595   
    103. D(S  16,C  10,C   9,C   8)     -0.1082         0.027595   
    104. D(C  11,C  10,C   9,H  23)     -0.1000         0.027595   
    105. D(C  11,C  10,C   9,C   8)    179.8594         0.027595   
    106. D(S  15,C  11,C  10,S  16)   -179.7202         0.021243   
    107. D(S  15,C  11,C  10,C   9)      0.3152         0.021243   
    108. D(C  12,C  11,C  10,S  16)      0.3067         0.021243   
    109. D(C  12,C  11,C  10,C   9)   -179.6579         0.021243   
    110. D(H  24,C  12,C  11,S  15)   -179.9906         0.030356   
    111. D(H  24,C  12,C  11,C  10)     -0.0152         0.030356   
    112. D(C  13,C  12,C  11,S  15)     -0.0125         0.030356   
    113. D(C  13,C  12,C  11,C  10)    179.9629         0.030356   
    114. D(H  25,C  13,C  12,H  24)     -0.0073         0.024285   
    115. D(H  25,C  13,C  12,C  11)   -179.9849         0.024285   
    116. D(C  14,C  13,C  12,H  24)    179.9890         0.024285   
    117. D(C  14,C  13,C  12,C  11)      0.0113         0.024285   
    118. D(H  26,C  14,C  13,H  25)     -0.0233         0.033874   
    119. D(H  26,C  14,C  13,C  12)    179.9804         0.033874   
    120. D(S  15,C  14,C  13,H  25)    179.9915         0.033874   
    121. D(S  15,C  14,C  13,C  12)     -0.0048         0.033874   
    122. D(C  11,S  15,C  14,H  26)   -179.9887         0.005367   
    123. D(C  11,S  15,C  14,C  13)     -0.0020         0.005367   
    124. D(C  14,S  15,C  11,C  12)      0.0082         0.004603   
    125. D(C  14,S  15,C  11,C  10)   -179.9692         0.004603   
    126. D(C   7,S  16,C  10,C  11)   -179.8737         0.004844   
    127. D(C   7,S  16,C  10,C   9)      0.0961         0.004844   
    128. D(C  10,S  16,C   7,C   8)     -0.0623         0.004489   
    129. D(C  10,S  16,C   7,N   6)   -179.7468         0.004489   
    130. D(C   1,S  17,C   4,N   5)    179.8338         0.003156   
    131. D(C   1,S  17,C   4,N   3)      0.0100         0.003156   
    132. D(C   4,S  17,C   1,C   2)      0.0326         0.005271   
    133. D(C   4,S  17,C   1,C   0)   -179.8192         0.005271   
    -----------------------------------------------------------------

Number of atoms                         .... 27
Number of degrees of freedom            .... 133

         *************************************************************
         *                GEOMETRY OPTIMIZATION CYCLE   1            *
         *************************************************************
---------------------------------
CARTESIAN COORDINATES (ANGSTROEM)
---------------------------------
  C     -6.404600    1.203100    0.642100
  C     -5.249700    0.467400    0.072200
  C     -5.283900   -0.606000   -0.789200
  N     -4.107500   -1.101700   -1.172400
  C     -3.101800   -0.472600   -0.653300
  N     -1.841600   -0.771600   -0.880300
  N     -0.940700   -0.064000   -0.284700
  C      0.336000   -0.364300   -0.527600
  C      0.929700   -1.318700   -1.348800
  C      2.312700   -1.282900   -1.308800
  C      2.817800   -0.307900   -0.460800
  C      4.184500   -0.019400   -0.198300
  C      4.708600    0.935600    0.641100
  C      6.112300    0.942600    0.658700
  C      6.653500    0.000200   -0.161300
  S      5.458200   -0.920800   -0.976600
  S      1.544700    0.587900    0.303000
  S     -3.625900    0.894800    0.437500
  H     -7.336800    0.758100    0.302100
  H     -6.378200    2.248900    0.336300
  H     -6.373800    1.177100    1.731000
  H     -6.185000   -1.059100   -1.164300
  H      0.337900   -1.994900   -1.938800
  H      2.954600   -1.938300   -1.871600
  H      4.090500    1.600000    1.217500
  H      6.699100    1.618200    1.254600
  H      7.689100   -0.211600   -0.338500

----------------------------
CARTESIAN COORDINATES (A.U.)
----------------------------
  NO LB      ZA    FRAG     MASS         X           Y           Z
   0 C     6.0000    0    12.011  -12.102940    2.273530    1.213393
   1 C     6.0000    0    12.011   -9.920495    0.883258    0.136438
   2 C     6.0000    0    12.011   -9.985124   -1.145174   -1.491372
   3 N     7.0000    0    14.007   -7.762050   -2.081911   -2.215515
   4 C     6.0000    0    12.011   -5.861553   -0.893085   -1.234558
   5 N     7.0000    0    14.007   -3.480120   -1.458113   -1.663526
   6 N     7.0000    0    14.007   -1.777665   -0.120942   -0.538005
   7 C     6.0000    0    12.011    0.634948   -0.688427   -0.997020
   8 C     6.0000    0    12.011    1.756878   -2.491982   -2.548863
   9 C     6.0000    0    12.011    4.370370   -2.424330   -2.473274
  10 C     6.0000    0    12.011    5.324870   -0.581847   -0.870786
  11 C     6.0000    0    12.011    7.907559   -0.036661   -0.374733
  12 C     6.0000    0    12.011    8.897964    1.768028    1.211503
  13 C     6.0000    0    12.011   11.550573    1.781256    1.244763
  14 C     6.0000    0    12.011   12.573293    0.000378   -0.304813
  15 S    16.0000    0    32.060   10.314503   -1.740060   -1.845507
  16 S    16.0000    0    32.060    2.919060    1.110970    0.572587
  17 S    16.0000    0    32.060   -6.851958    1.690927    0.826755
  18 H     1.0000    0     1.008  -13.864543    1.432601    0.570886
  19 H     1.0000    0     1.008  -12.053051    4.249805    0.635515
  20 H     1.0000    0     1.008  -12.044736    2.224397    3.271116
  21 H     1.0000    0     1.008  -11.687956   -2.001409   -2.200208
  22 H     1.0000    0     1.008    0.638538   -3.769815   -3.663801
  23 H     1.0000    0     1.008    5.583385   -3.662856   -3.536811
  24 H     1.0000    0     1.008    7.729925    3.023562    2.300742
  25 H     1.0000    0     1.008   12.659464    3.057955    2.370850
  26 H     1.0000    0     1.008   14.530293   -0.399866   -0.639672

--------------------------------
INTERNAL COORDINATES (ANGSTROEM)
--------------------------------
 C      0   0   0     0.000000000000     0.00000000     0.00000000
 C      1   0   0     1.483183909702     0.00000000     0.00000000
 C      2   1   0     1.376723341852   127.43156027     0.00000000
 N      3   2   1     1.332845711251   116.61117704   179.76970621
 C      4   3   2     1.294860652734   112.92782957     0.08171976
 N      5   4   3     1.314927389630   124.37988595   180.12675332
 N      6   5   4     1.291145975481   117.67518377   180.55911071
 C      7   6   5     1.333845339610   117.41740699   180.56349239
 C      8   7   6     1.392023164319   132.06849354     1.21877910
 C      9   8   7     1.384041415565   113.04142654   179.63420699
 C     10   9   8     1.387391440798   113.55524179     0.06135814
 C     11  10   9     1.421269640146   127.27388723   179.85940227
 C     12  11  10     1.375244767305   128.32732177   180.34206345
 C     13  12  11     1.403827785022   113.08996284   179.96288894
 C     14  13  12     1.361401924488   112.73640443     0.00000000
 S     15  14  13     1.715137656283   112.39479476     0.00000000
 S     11  10   9     1.733964154762   111.40729683   359.89184312
 S      2   1   3     1.718383336162   122.05595362   179.82520765
 H      1   2   3     1.087484179195   110.14324702     1.44825620
 H      1   2   3     1.089912033148   110.44347942   240.98748219
 H      1   2   3     1.089645745185   110.49542295   122.03466782
 H      3   2   1     1.076095177017   124.55463072   359.80158249
 H      9   8   7     1.074976129968   121.35009188   359.70727563
 H     10   9   8     1.076256758399   124.40963219   180.01967055
 H     13  12  11     1.075040431798   122.50085991     0.00000000
 H     14  13  12     1.075112277858   123.76832564   180.01509630
 H     15  14  13     1.071786564573   128.35162750   179.98044240

---------------------------
INTERNAL COORDINATES (A.U.)
---------------------------
 C      0   0   0     0.000000000000     0.00000000     0.00000000
 C      1   0   0     2.802811395576     0.00000000     0.00000000
 C      2   1   0     2.601630078277   127.43156027     0.00000000
 N      3   2   1     2.518713373036   116.61117704   179.76970621
 C      4   3   2     2.446932015259   112.92782957     0.08171976
 N      5   4   3     2.484852652393   124.37988595   180.12675332
 N      6   5   4     2.439912292573   117.67518377   180.55911071
 C      7   6   5     2.520602396871   117.41740699   180.56349239
 C      8   7   6     2.630542552637   132.06849354     1.21877910
 C      9   8   7     2.615459233423   113.04142654   179.63420699
 C     10   9   8     2.621789863655   113.55524179     0.06135814
 C     11  10   9     2.685810382332   127.27388723   179.85940227
 C     12  11  10     2.598835977315   128.32732177   180.34206345
 C     13  12  11     2.652850052881   113.08996284   179.96288894
 C     14  13  12     2.572676795476   112.73640443     0.00000000
 S     15  14  13     3.241140452350   112.39479476     0.00000000
 S     11  10   9     3.276717378537   111.40729683   359.89184312
 S      2   1   3     3.247273898441   122.05595362   179.82520765
 H      1   2   3     2.055047273651   110.14324702     1.44825620
 H      1   2   3     2.059635252714   110.44347942   240.98748219
 H      1   2   3     2.059132041392   110.49542295   122.03466782
 H      3   2   1     2.033525178596   124.55463072   359.80158249
 H      9   8   7     2.031410486141   121.35009188   359.70727563
 H     10   9   8     2.033830523156   124.40963219   180.01967055
 H     13  12  11     2.031531998990   122.50085991     0.00000000
 H     14  13  12     2.031667768367   123.76832564   180.01509630
 H     15  14  13     2.025383081060   128.35162750   179.98044240

---------------------
BASIS SET INFORMATION
---------------------
There are 4 groups of distinct atoms

 Group   1 Type C   : 19s6p3d2f contracted to 5s4p3d2f pattern {88111/3111/111/11}
 Group   2 Type N   : 19s6p3d2f contracted to 5s4p3d2f pattern {88111/3111/111/11}
 Group   3 Type S   : 42s17p3d2f contracted to 6s5p3d2f pattern {131313111/77111/111/11}
 Group   4 Type H   : 5s2p1d contracted to 3s2p1d pattern {311/11/1}

Atom   0C    basis set group =>   1
Atom   1C    basis set group =>   1
Atom   2C    basis set group =>   1
Atom   3N    basis set group =>   2
Atom   4C    basis set group =>   1
Atom   5N    basis set group =>   2
Atom   6N    basis set group =>   2
Atom   7C    basis set group =>   1
Atom   8C    basis set group =>   1
Atom   9C    basis set group =>   1
Atom  10C    basis set group =>   1
Atom  11C    basis set group =>   1
Atom  12C    basis set group =>   1
Atom  13C    basis set group =>   1
Atom  14C    basis set group =>   1
Atom  15S    basis set group =>   3
Atom  16S    basis set group =>   3
Atom  17S    basis set group =>   3
Atom  18H    basis set group =>   4
Atom  19H    basis set group =>   4
Atom  20H    basis set group =>   4
Atom  21H    basis set group =>   4
Atom  22H    basis set group =>   4
Atom  23H    basis set group =>   4
Atom  24H    basis set group =>   4
Atom  25H    basis set group =>   4
Atom  26H    basis set group =>   4
---------------------------------
AUXILIARY/J BASIS SET INFORMATION
---------------------------------
There are 4 groups of distinct atoms

 Group   1 Type C   : 10s7p5d2f1g contracted to 10s7p5d2f1g pattern {1111111111/1111111/11111/11/1}
 Group   2 Type N   : 10s7p5d2f1g contracted to 10s7p5d2f1g pattern {1111111111/1111111/11111/11/1}
 Group   3 Type S   : 13s11p9d3f1g contracted to 13s11p9d3f1g pattern {1111111111111/11111111111/111111111/111/1}
 Group   4 Type H   : 4s3p2d1f contracted to 4s3p2d1f pattern {1111/111/11/1}

Atom   0C    basis set group =>   1
Atom   1C    basis set group =>   1
Atom   2C    basis set group =>   1
Atom   3N    basis set group =>   2
Atom   4C    basis set group =>   1
Atom   5N    basis set group =>   2
Atom   6N    basis set group =>   2
Atom   7C    basis set group =>   1
Atom   8C    basis set group =>   1
Atom   9C    basis set group =>   1
Atom  10C    basis set group =>   1
Atom  11C    basis set group =>   1
Atom  12C    basis set group =>   1
Atom  13C    basis set group =>   1
Atom  14C    basis set group =>   1
Atom  15S    basis set group =>   3
Atom  16S    basis set group =>   3
Atom  17S    basis set group =>   3
Atom  18H    basis set group =>   4
Atom  19H    basis set group =>   4
Atom  20H    basis set group =>   4
Atom  21H    basis set group =>   4
Atom  22H    basis set group =>   4
Atom  23H    basis set group =>   4
Atom  24H    basis set group =>   4
Atom  25H    basis set group =>   4
Atom  26H    basis set group =>   4
---------------------------------
AUXILIARY/C BASIS SET INFORMATION
---------------------------------
There are 4 groups of distinct atoms

 Group   1 Type C   : 9s7p6d4f2g contracted to 9s7p6d4f2g pattern {111111111/1111111/111111/1111/11}
 Group   2 Type N   : 9s7p6d4f2g contracted to 9s7p6d4f2g pattern {111111111/1111111/111111/1111/11}
 Group   3 Type S   : 11s9p8d6f3g contracted to 11s9p8d6f3g pattern {11111111111/111111111/11111111/111111/111}
 Group   4 Type H   : 4s3p2d1f contracted to 4s3p2d1f pattern {1111/111/11/1}

Atom   0C    basis set group =>   1
Atom   1C    basis set group =>   1
Atom   2C    basis set group =>   1
Atom   3N    basis set group =>   2
Atom   4C    basis set group =>   1
Atom   5N    basis set group =>   2
Atom   6N    basis set group =>   2
Atom   7C    basis set group =>   1
Atom   8C    basis set group =>   1
Atom   9C    basis set group =>   1
Atom  10C    basis set group =>   1
Atom  11C    basis set group =>   1
Atom  12C    basis set group =>   1
Atom  13C    basis set group =>   1
Atom  14C    basis set group =>   1
Atom  15S    basis set group =>   3
Atom  16S    basis set group =>   3
Atom  17S    basis set group =>   3
Atom  18H    basis set group =>   4
Atom  19H    basis set group =>   4
Atom  20H    basis set group =>   4
Atom  21H    basis set group =>   4
Atom  22H    basis set group =>   4
Atom  23H    basis set group =>   4
Atom  24H    basis set group =>   4
Atom  25H    basis set group =>   4
Atom  26H    basis set group =>   4


           ************************************************************
           *        Program running with 4 parallel MPI-processes     *
           *              working on a common directory               *
           ************************************************************
------------------------------------------------------------------------------
                           ORCA GTO INTEGRAL CALCULATION
                           -- RI-GTO INTEGRALS CHOSEN --
------------------------------------------------------------------------------
------------------------------------------------------------------------------
                   ___                                                        
                  /   \      - P O W E R E D   B Y -                         
                 /     \                                                     
                 |  |  |   _    _      __       _____    __    __             
                 |  |  |  | |  | |    /  \     |  _  \  |  |  /  |          
                  \  \/   | |  | |   /    \    | | | |  |  | /  /          
                 / \  \   | |__| |  /  /\  \   | |_| |  |  |/  /          
                |  |  |   |  __  | /  /__\  \  |    /   |      \           
                |  |  |   | |  | | |   __   |  |    \   |  |\   \          
                \     /   | |  | | |  |  |  |  | |\  \  |  | \   \       
                 \___/    |_|  |_| |__|  |__|  |_| \__\ |__|  \__/        
                                                                              
                      - O R C A' S   B I G   F R I E N D -                    
                                      &                                       
                       - I N T E G R A L  F E E D E R -                       
                                                                              
 v1 FN, 2020, v2 2021                                                         
------------------------------------------------------------------------------


Reading SHARK input file x3lyp-train-15.SHARKINP.tmp ... ok
----------------------
SHARK INTEGRAL PACKAGE
----------------------

Number of atoms                             ...     27
Number of basis functions                   ...   1131
Number of shells                            ...    447
Maximum angular momentum                    ...      3
Integral batch strategy                     ... SHARK/LIBINT Hybrid
RI-J (if used) integral strategy            ... SPLIT-RIJ (Revised 2003 algorithm where possible)
Printlevel                                  ...      1
Contraction scheme used                     ... PARTIAL GENERAL contraction
Coulomb Range Separation                    ... NOT USED
Exchange Range Separation                   ... NOT USED
Finite Nucleus Model                        ... NOT USED
Auxiliary Coulomb fitting basis             ... AVAILABLE
   # of basis functions in Aux-J            ...   1818
   # of shells in Aux-J                     ...    576
   Maximum angular momentum in Aux-J        ...      4
Auxiliary J/K fitting basis                 ... NOT available
Auxiliary Correlation fitting basis         ... AVAILABLE
   # of basis functions in Aux-C            ...   2301
   # of shells in Aux-C                     ...    621
   Maximum angular momentum in Aux-C        ...      4
Auxiliary 'external' fitting basis          ... NOT available
Integral threshold                          ...     2.500000e-11
Primitive cut-off                           ...     2.500000e-12
Primitive pair pre-selection threshold      ...     2.500000e-12

Calculating pre-screening integrals         ... done (  0.2 sec) Dimension = 447
Calculating pre-screening integrals (ORCA)  ... done (  0.6 sec) Dimension = 312
Organizing shell pair data                  ... done (  0.8 sec)
Shell pair information
Total number of shell pairs                 ...    100128
Shell pairs after pre-screening             ...     56840
Total number of primitive shell pairs       ...    122832
Primitive shell pairs kept                  ...     64064
          la=0 lb=0:  12415 shell pairs
          la=1 lb=0:  15086 shell pairs
          la=1 lb=1:   4113 shell pairs
          la=2 lb=0:   9107 shell pairs
          la=2 lb=1:   4789 shell pairs
          la=2 lb=2:   1452 shell pairs
          la=3 lb=0:   5062 shell pairs
          la=3 lb=1:   2712 shell pairs
          la=3 lb=2:   1627 shell pairs
          la=3 lb=3:    477 shell pairs

Calculating one electron integrals          ... done (  0.2 sec)
Calculating RI/J V-Matrix + Cholesky decomp.... done (  1.2 sec)
Calculating RI/C V-Matrix + Cholesky decomp.... done (  0.4 sec)
Calculating Nuclear repulsion               ... done (  0.0 sec) ENN=   1485.586984744147 Eh

SHARK setup successfully completed in   7.0 seconds

Maximum memory used throughout the entire GTOINT-calculation: 92.0 MB


           ************************************************************
           *        Program running with 4 parallel MPI-processes     *
           *              working on a common directory               *
           ************************************************************
-------------------------------------------------------------------------------
                                 ORCA SCF
-------------------------------------------------------------------------------

------------
SCF SETTINGS
------------
Hamiltonian:
 Density Functional     Method          .... DFT(GTOs)
 Exchange Functional    Exchange        .... X
 Correlation Functional Correlation     .... LYP
 LDA part of GGA corr.  LDAOpt          .... VWN-5
 Gradients option       PostSCFGGA      .... off
 Hybrid DFT is turned on
   Fraction HF Exchange ScalHFX         ....  0.218000
   Scaling of DF-GGA-X  ScalDFX         ....  0.709000
   Scaling of DF-GGA-C  ScalDFC         ....  0.871000
   Scaling of DF-LDA-C  ScalLDAC        ....  1.000000
   Perturbative correction              ....  0.000000
   Density functional embedding theory  .... OFF
 RI-approximation to the Coulomb term is turned on
   Number of AuxJ basis functions       .... 1818
   RIJ-COSX (HFX calculated with COS-X)).... on


General Settings:
 Integral files         IntName         .... x3lyp-train-15
 Hartree-Fock type      HFTyp           .... RHF
 Total Charge           Charge          ....    0
 Multiplicity           Mult            ....    1
 Number of Electrons    NEL             ....  150
 Basis Dimension        Dim             ....  966
 Nuclear Repulsion      ENuc            ....   1485.5869847441 Eh

Convergence Acceleration:
 DIIS                   CNVDIIS         .... on
   Start iteration      DIISMaxIt       ....    12
   Startup error        DIISStart       ....  0.200000
   # of expansion vecs  DIISMaxEq       ....     5
   Bias factor          DIISBfac        ....   1.050
   Max. coefficient     DIISMaxC        ....  10.000
 Trust-Rad. Augm. Hess. CNVTRAH         .... auto
   Auto Start mean grad. ratio tolernc. ....  1.125000
   Auto Start start iteration           ....    20
   Auto Start num. interpolation iter.  ....    10
   Max. Number of Micro iterations      ....    16
   Max. Number of Macro iterations      .... Maxiter - #DIIS iter
   Number of Davidson start vectors     ....     2
   Converg. threshold I  (grad. norm)   ....   1.000e-05
   Converg. threshold II (energy diff.) ....   1.000e-08
   Grad. Scal. Fac. for Micro threshold ....   0.100
   Minimum threshold for Micro iter.    ....   0.010
   NR start threshold (gradient norm)   ....   0.001
   Initial trust radius                 ....   0.400
   Minimum AH scaling param. (alpha)    ....   1.000
   Maximum AH scaling param. (alpha)    .... 1000.000
   Orbital update algorithm             .... Taylor
   White noise on init. David. guess    .... on
   Maximum white noise                  ....   0.010
   Quad. conv. algorithm                .... NR
 SOSCF                  CNVSOSCF        .... on
   Start iteration      SOSCFMaxIt      ....   150
   Startup grad/error   SOSCFStart      ....  0.003300
 Level Shifting         CNVShift        .... on
   Level shift para.    LevelShift      ....    0.2500
   Turn off err/grad.   ShiftErr        ....    0.0010
 Zerner damping         CNVZerner       .... off
 Static damping         CNVDamp         .... on
   Fraction old density DampFac         ....    0.7000
   Max. Damping (<1)    DampMax         ....    0.9800
   Min. Damping (>=0)   DampMin         ....    0.0000
   Turn off err/grad.   DampErr         ....    0.1000
 Fernandez-Rico         CNVRico         .... off

SCF Procedure:
 Maximum # iterations   MaxIter         ....   125
 SCF integral mode      SCFMode         .... Direct
   Integral package                     .... SHARK and LIBINT hybrid scheme
 Reset frequency        DirectResetFreq ....    20
 Integral Threshold     Thresh          ....  2.500e-11 Eh
 Primitive CutOff       TCut            ....  2.500e-12 Eh

Convergence Tolerance:
 Convergence Check Mode ConvCheckMode   .... Total+1el-Energy
 Convergence forced     ConvForced      .... 0
 Energy Change          TolE            ....  1.000e-08 Eh
 1-El. energy change                    ....  1.000e-05 Eh
 Orbital Gradient       TolG            ....  1.000e-05
 Orbital Rotation angle TolX            ....  1.000e-05
 DIIS Error             TolErr          ....  5.000e-07


Diagonalization of the overlap matrix:
Smallest eigenvalue                        ... 1.484e-06
Time for diagonalization                   ...    0.310 sec
Threshold for overlap eigenvalues          ... 1.000e-08
Number of eigenvalues below threshold      ... 0
Time for construction of square roots      ...    0.152 sec
Total time needed                          ...    0.469 sec

Time for model grid setup =    0.552 sec

------------------------------
INITIAL GUESS: MODEL POTENTIAL
------------------------------
Loading Hartree-Fock densities                     ... done
Calculating cut-offs                               ... done
Initializing the effective Hamiltonian             ... done
Setting up the integral package (SHARK)            ... done
Starting the Coulomb interaction                   ... done (   2.0 sec)
Reading the grid                                   ... done
Mapping shells                                     ... done
Starting the XC term evaluation                    ... done (   1.4 sec)
  promolecular density results
     # of electrons  =    149.995041599
     EX              =   -160.161123269
     EC              =     -5.475809318
     EX+EC           =   -165.636932588
Transforming the Hamiltonian                       ... done (   0.2 sec)
Diagonalizing the Hamiltonian                      ... done (   0.3 sec)
Back transforming the eigenvectors                 ... done (   0.1 sec)
Now organizing SCF variables                       ... done
                      ------------------
                      INITIAL GUESS DONE (   4.5 sec)
                      ------------------
-------------------
DFT GRID GENERATION
-------------------

General Integration Accuracy     IntAcc      ... 4.388
Radial Grid Type                 RadialGrid  ... OptM3 with GC (2021)
Angular Grid (max. ang.)         AngularGrid ... 4 (Lebedev-302)
Angular grid pruning method      GridPruning ... 4 (adaptive)
Weight generation scheme         WeightScheme... Becke
Basis function cutoff            BFCut       ... 1.0000e-11
Integration weight cutoff        WCut        ... 1.0000e-14
Angular grids for H and He will be reduced by one unit
Partially contracted basis set               ... off
Rotationally invariant grid construction     ... off

Total number of grid points                  ...   145831
Total number of batches                      ...     2293
Average number of points per batch           ...       63
Average number of grid points per atom       ...     5401
Time for grid setup =    1.877 sec

--------------------
COSX GRID GENERATION
--------------------

GRIDX 1
-------
General Integration Accuracy     IntAcc      ... 3.816
Radial Grid Type                 RadialGrid  ... OptM3 with GC (2021)
Angular Grid (max. ang.)         AngularGrid ... 1 (Lebedev-50)
Angular grid pruning method      GridPruning ... 4 (adaptive)
Weight generation scheme         WeightScheme... Becke
Basis function cutoff            BFCut       ... 1.0000e-11
Integration weight cutoff        WCut        ... 1.0000e-14
Angular grids for H and He will be reduced by one unit
Partially contracted basis set               ... on
Rotationally invariant grid construction     ... off

Total number of grid points                  ...    18267
Total number of batches                      ...      301
Average number of points per batch           ...       60
Average number of grid points per atom       ...      677
UseSFitting                                  ... on

GRIDX 2
-------
General Integration Accuracy     IntAcc      ... 4.020
Radial Grid Type                 RadialGrid  ... OptM3 with GC (2021)
Angular Grid (max. ang.)         AngularGrid ... 2 (Lebedev-110)
Angular grid pruning method      GridPruning ... 4 (adaptive)
Weight generation scheme         WeightScheme... Becke
Basis function cutoff            BFCut       ... 1.0000e-11
Integration weight cutoff        WCut        ... 1.0000e-14
Angular grids for H and He will be reduced by one unit
Partially contracted basis set               ... on
Rotationally invariant grid construction     ... off

Total number of grid points                  ...    44672
Total number of batches                      ...      713
Average number of points per batch           ...       62
Average number of grid points per atom       ...     1655
UseSFitting                                  ... on

GRIDX 3
-------
General Integration Accuracy     IntAcc      ... 4.338
Radial Grid Type                 RadialGrid  ... OptM3 with GC (2021)
Angular Grid (max. ang.)         AngularGrid ... 3 (Lebedev-194)
Angular grid pruning method      GridPruning ... 4 (adaptive)
Weight generation scheme         WeightScheme... Becke
Basis function cutoff            BFCut       ... 1.0000e-11
Integration weight cutoff        WCut        ... 1.0000e-14
Angular grids for H and He will be reduced by one unit
Partially contracted basis set               ... on
Rotationally invariant grid construction     ... off

Total number of grid points                  ...    98478
Total number of batches                      ...     1551
Average number of points per batch           ...       63
Average number of grid points per atom       ...     3647
UseSFitting                                  ... on

Time for X-Grid setup             =    4.270 sec


--------------------
CPCM SOLVATION MODEL
--------------------
CPCM parameters:
  Epsilon                                         ...      46.8260
  Refrac                                          ...       1.4170
  Rsolv                                           ...       1.3000
  Surface type                                    ... GAUSSIAN VDW
  Epsilon function type                           ...         CPCM
Solvent:                                     ... DIMETHYLSULFOXIDE
SMD-CDS solvent descriptors:
  Soln                                       ...    1.4170
  Soln25                                     ...    1.4773
  Sola                                       ...    0.0000
  Solb                                       ...    0.8800
  Solg                                       ...   61.7800
  Solc                                       ...    0.0000
  Solh                                       ...    0.0000
Radii:
 Radius for C  used is    3.4960 Bohr (=   1.8500 Ang.)
 Radius for N  used is    3.5716 Bohr (=   1.8900 Ang.)
 Radius for S  used is    4.7054 Bohr (=   2.4900 Ang.)
 Radius for H  used is    2.2677 Bohr (=   1.2000 Ang.)
Calculating surface                               ...        done! (  0.0s)
GEPOL surface points                              ...         1465
GEPOL Volume                                      ...    2155.4536
GEPOL Surface-area                                ...    1112.2083
Calculating surface distance matrix               ...        done! (  0.0s)
Performing Cholesky decomposition & store         ...        done! (  0.1s)
Overall time for CPCM initialization              ...                 0.1s
 re-compute Schwartz prescreening matrix in partically contracted basis (1) ...done (   0.216 sec)
--------------
SCF ITERATIONS
--------------
ITER       Energy         Delta-E        Max-DP      RMS-DP      [F,P]     Damp
               ***  Starting incremental Fock matrix formation  ***
  0  -1820.4449117752   0.000000000000 0.13893974  0.00084950  0.2498089 0.7000
  1  -1820.7049040639  -0.259992288736 0.09222426  0.00060232  0.1069607 0.7000
                               ***Turning on DIIS***
  2  -1820.8033826370  -0.098478573155 0.18813195  0.00118978  0.0389287 0.0000
  3  -1820.9375254541  -0.134142817104 0.02705071  0.00031599  0.0601118 0.0000
  4  -1820.9853071797  -0.047781725521 0.01707505  0.00015101  0.0157071 0.0000
  5  -1820.9880877863  -0.002780606653 0.00753206  0.00005272  0.0117278 0.0000
                      *** Initiating the SOSCF procedure ***
                           *** Shutting down DIIS ***
                      *** Re-Reading the Fockian *** 
                      *** Removing any level shift *** 
ITER      Energy       Delta-E        Grad      Rot      Max-DP    RMS-DP
  6  -1820.98853893  -0.0004511433  0.000441  0.000441  0.002627  0.000025
               *** Restarting incremental Fock matrix formation ***
  7  -1820.98857608  -0.0000371523  0.000328  0.002478  0.015077  0.000169
  8  -1820.98858416  -0.0000080751  0.000308  0.001121  0.005844  0.000068
  9  -1820.98858735  -0.0000031891  0.000228  0.000554  0.005510  0.000062
 10  -1820.98858889  -0.0000015398  0.000067  0.000314  0.001717  0.000020
 11  -1820.98858920  -0.0000003140  0.000047  0.000272  0.001742  0.000019
 12  -1820.98858941  -0.0000002131  0.000020  0.000118  0.001668  0.000011
 13  -1820.98858946  -0.0000000515  0.000013  0.000051  0.001459  0.000013
 14  -1820.98858949  -0.0000000257  0.000008  0.000021  0.002757  0.000017
 15  -1820.98858948   0.0000000097  0.000007  0.000015  0.001056  0.000008
                  ***Gradient check signals convergence***
              ***Rediagonalizing the Fockian in SOSCF/NRSCF***

               *****************************************************
               *                     SUCCESS                       *
               *           SCF CONVERGED AFTER  16 CYCLES          *
               *****************************************************

Old exchange energy                            =    -34.938058339 Eh
New exchange energy                            =    -34.937967999 Eh
Exchange energy change after final integration =      0.000090339 Eh
Total energy after final integration           =  -1820.988499138 Eh
Final COS-X integration done in                =   101.808 sec

SMD CDS free energy correction energy :                 0.54159     Kcal/mol
Total Energy after SMD CDS correction =             -1820.987636062 Eh

----------------
TOTAL SCF ENERGY
----------------

Total Energy       :        -1820.98763606 Eh          -49551.59273 eV

Components:
Nuclear Repulsion  :         1485.58698474 Eh           40424.87702 eV
Electronic Energy  :        -3306.57462081 Eh          -89976.46975 eV
One Electron Energy:        -5452.41097818 Eh         -148367.64558 eV
Two Electron Energy:         2145.83635737 Eh           58391.17583 eV
Max COSX asymmetry :            0.00001928 Eh               0.00052 eV
CPCM Dielectric    :           -0.02222623 Eh              -0.60481 eV
SMD CDS (Gcds)     :            0.00086308 Eh               0.02349 eV

Virial components:
Potential Energy   :        -3635.63495781 Eh          -98930.65674 eV
Kinetic Energy     :         1814.64732175 Eh           49379.06401 eV
Virial Ratio       :            2.00349397


DFT components:
N(Alpha)           :       75.000010005589 electrons
N(Beta)            :       75.000010005589 electrons
N(Total)           :      150.000020011177 electrons
E(X)               :     -124.561780047216 Eh       
E(C)               :       -6.131295994230 Eh       
E(XC)              :     -130.693076041447 Eh       
DFET-embed. en.    :        0.000000000000 Eh       
CPCM Solvation Model Properties:
Surface-charge          :           -0.04630671
Charge-correction       :           -0.00003229 Eh              -0.00088 eV
Free-energy (cav+disp)  :            0.00086308 Eh               0.02349 eV

---------------
SCF CONVERGENCE
---------------

  Last Energy change         ...    2.7458e-09  Tolerance :   1.0000e-08
  Last MAX-Density change    ...    5.7732e-15  Tolerance :   1.0000e-07
  Last RMS-Density change    ...    2.0682e-17  Tolerance :   5.0000e-09
  Last Orbital Gradient      ...    1.4788e-06  Tolerance :   1.0000e-05
  Last Orbital Rotation      ...    8.0174e-06  Tolerance :   1.0000e-05

             **** THE GBW FILE WAS UPDATED (x3lyp-train-15.gbw) ****
             **** DENSITY x3lyp-train-15.scfp WAS UPDATED ****
             **** ENERGY FILE WAS UPDATED (x3lyp-train-15.en.tmp) ****
             **** THE GBW FILE WAS UPDATED (x3lyp-train-15.gbw) ****
             **** DENSITY x3lyp-train-15.scfp WAS UPDATED ****
----------------
ORBITAL ENERGIES
----------------

  NO   OCC          E(Eh)            E(eV) 
   0   2.0000     -88.999582     -2421.8017 
   1   2.0000     -88.995205     -2421.6826 
   2   2.0000     -88.989285     -2421.5216 
   3   2.0000     -14.404276      -391.9603 
   4   2.0000     -14.392765      -391.6471 
   5   2.0000     -14.352820      -390.5601 
   6   2.0000     -10.282896      -279.8118 
   7   2.0000     -10.262893      -279.2675 
   8   2.0000     -10.259045      -279.1628 
   9   2.0000     -10.244352      -278.7630 
  10   2.0000     -10.241261      -278.6789 
  11   2.0000     -10.229537      -278.3598 
  12   2.0000     -10.223917      -278.2069 
  13   2.0000     -10.217110      -278.0217 
  14   2.0000     -10.214842      -277.9600 
  15   2.0000     -10.209092      -277.8035 
  16   2.0000     -10.204591      -277.6810 
  17   2.0000     -10.193972      -277.3921 
  18   2.0000      -8.004522      -217.8141 
  19   2.0000      -7.999909      -217.6886 
  20   2.0000      -7.993430      -217.5123 
  21   2.0000      -5.961841      -162.2299 
  22   2.0000      -5.958495      -162.1389 
  23   2.0000      -5.957239      -162.1047 
  24   2.0000      -5.955679      -162.0623 
  25   2.0000      -5.953672      -162.0077 
  26   2.0000      -5.951375      -161.9451 
  27   2.0000      -5.950429      -161.9194 
  28   2.0000      -5.947439      -161.8380 
  29   2.0000      -5.945007      -161.7719 
  30   2.0000      -1.055925       -28.7332 
  31   2.0000      -0.983789       -26.7703 
  32   2.0000      -0.919800       -25.0290 
  33   2.0000      -0.896247       -24.3881 
  34   2.0000      -0.842608       -22.9285 
  35   2.0000      -0.822323       -22.3765 
  36   2.0000      -0.777088       -21.1456 
  37   2.0000      -0.763776       -20.7834 
  38   2.0000      -0.749763       -20.4021 
  39   2.0000      -0.736856       -20.0509 
  40   2.0000      -0.707749       -19.2588 
  41   2.0000      -0.679179       -18.4814 
  42   2.0000      -0.611674       -16.6445 
  43   2.0000      -0.611255       -16.6331 
  44   2.0000      -0.573435       -15.6040 
  45   2.0000      -0.566743       -15.4219 
  46   2.0000      -0.546243       -14.8640 
  47   2.0000      -0.536881       -14.6093 
  48   2.0000      -0.525983       -14.3127 
  49   2.0000      -0.495500       -13.4832 
  50   2.0000      -0.471926       -12.8418 
  51   2.0000      -0.467555       -12.7228 
  52   2.0000      -0.464848       -12.6492 
  53   2.0000      -0.439966       -11.9721 
  54   2.0000      -0.436673       -11.8825 
  55   2.0000      -0.422894       -11.5075 
  56   2.0000      -0.420736       -11.4488 
  57   2.0000      -0.412633       -11.2283 
  58   2.0000      -0.409573       -11.1451 
  59   2.0000      -0.408969       -11.1286 
  60   2.0000      -0.399806       -10.8793 
  61   2.0000      -0.387719       -10.5504 
  62   2.0000      -0.377657       -10.2766 
  63   2.0000      -0.369935       -10.0665 
  64   2.0000      -0.364581        -9.9208 
  65   2.0000      -0.357746        -9.7348 
  66   2.0000      -0.350967        -9.5503 
  67   2.0000      -0.301013        -8.1910 
  68   2.0000      -0.293334        -7.9820 
  69   2.0000      -0.290412        -7.9025 
  70   2.0000      -0.278940        -7.5903 
  71   2.0000      -0.267170        -7.2701 
  72   2.0000      -0.254714        -6.9311 
  73   2.0000      -0.250249        -6.8096 
  74   2.0000      -0.201621        -5.4864 
  75   0.0000      -0.115332        -3.1383 
  76   0.0000      -0.049410        -1.3445 
  77   0.0000      -0.008193        -0.2229 
  78   0.0000      -0.005130        -0.1396 
  79   0.0000      -0.000016        -0.0004 
  80   0.0000       0.003356         0.0913 
  81   0.0000       0.009326         0.2538 
  82   0.0000       0.015427         0.4198 
  83   0.0000       0.016976         0.4619 
  84   0.0000       0.017326         0.4715 
  85   0.0000       0.020744         0.5645 
  86   0.0000       0.023845         0.6488 
  87   0.0000       0.029776         0.8103 
  88   0.0000       0.031128         0.8470 
  89   0.0000       0.035658         0.9703 
  90   0.0000       0.037235         1.0132 
  91   0.0000       0.037652         1.0246 
  92   0.0000       0.042247         1.1496 
  93   0.0000       0.042578         1.1586 
  94   0.0000       0.052003         1.4151 
  95   0.0000       0.053803         1.4641 
  96   0.0000       0.054400         1.4803 
  97   0.0000       0.058243         1.5849 
  98   0.0000       0.058458         1.5907 
  99   0.0000       0.060162         1.6371 
 100   0.0000       0.064596         1.7577 
 101   0.0000       0.067208         1.8288 
 102   0.0000       0.072393         1.9699 
 103   0.0000       0.078769         2.1434 
 104   0.0000       0.079112         2.1528 
 105   0.0000       0.086104         2.3430 
 106   0.0000       0.088326         2.4035 
 107   0.0000       0.090138         2.4528 
 108   0.0000       0.094040         2.5589 
 109   0.0000       0.099076         2.6960 
 110   0.0000       0.101150         2.7524 
 111   0.0000       0.101970         2.7747 
 112   0.0000       0.108619         2.9557 
 113   0.0000       0.110054         2.9947 
 114   0.0000       0.111893         3.0448 
 115   0.0000       0.113738         3.0950 
 116   0.0000       0.113924         3.1000 
 117   0.0000       0.120320         3.2741 
 118   0.0000       0.125841         3.4243 
 119   0.0000       0.128392         3.4937 
 120   0.0000       0.129076         3.5123 
 121   0.0000       0.130971         3.5639 
 122   0.0000       0.131772         3.5857 
 123   0.0000       0.135770         3.6945 
 124   0.0000       0.140839         3.8324 
 125   0.0000       0.141476         3.8498 
 126   0.0000       0.145892         3.9699 
 127   0.0000       0.147091         4.0025 
 128   0.0000       0.148003         4.0274 
 129   0.0000       0.149953         4.0804 
 130   0.0000       0.151637         4.1263 
 131   0.0000       0.151911         4.1337 
 132   0.0000       0.159523         4.3408 
 133   0.0000       0.162248         4.4150 
 134   0.0000       0.164397         4.4735 
 135   0.0000       0.165166         4.4944 
 136   0.0000       0.165865         4.5134 
 137   0.0000       0.170519         4.6401 
 138   0.0000       0.171790         4.6746 
 139   0.0000       0.172446         4.6925 
 140   0.0000       0.180629         4.9152 
 141   0.0000       0.182030         4.9533 
 142   0.0000       0.184899         5.0314 
 143   0.0000       0.187637         5.1059 
 144   0.0000       0.192659         5.2425 
 145   0.0000       0.193129         5.2553 
 146   0.0000       0.194728         5.2988 
 147   0.0000       0.202836         5.5194 
 148   0.0000       0.202976         5.5233 
 149   0.0000       0.205317         5.5870 
 150   0.0000       0.207835         5.6555 
 151   0.0000       0.215169         5.8550 
 152   0.0000       0.216823         5.9001 
 153   0.0000       0.218698         5.9511 
 154   0.0000       0.221141         6.0176 
 155   0.0000       0.227581         6.1928 
 156   0.0000       0.229066         6.2332 
 157   0.0000       0.230126         6.2620 
 158   0.0000       0.238345         6.4857 
 159   0.0000       0.240616         6.5475 
 160   0.0000       0.243775         6.6335 
 161   0.0000       0.247309         6.7296 
 162   0.0000       0.249691         6.7944 
 163   0.0000       0.250544         6.8176 
 164   0.0000       0.256841         6.9890 
 165   0.0000       0.257410         7.0045 
 166   0.0000       0.259392         7.0584 
 167   0.0000       0.262237         7.1358 
 168   0.0000       0.263886         7.1807 
 169   0.0000       0.267735         7.2854 
 170   0.0000       0.273279         7.4363 
 171   0.0000       0.273770         7.4497 
 172   0.0000       0.274709         7.4752 
 173   0.0000       0.277885         7.5616 
 174   0.0000       0.283702         7.7199 
 175   0.0000       0.285663         7.7733 
 176   0.0000       0.287996         7.8368 
 177   0.0000       0.289628         7.8812 
 178   0.0000       0.294606         8.0166 
 179   0.0000       0.299931         8.1615 
 180   0.0000       0.306914         8.3516 
 181   0.0000       0.310797         8.4572 
 182   0.0000       0.312813         8.5121 
 183   0.0000       0.313622         8.5341 
 184   0.0000       0.316593         8.6149 
 185   0.0000       0.318225         8.6593 
 186   0.0000       0.327893         8.9224 
 187   0.0000       0.332381         9.0446 
 188   0.0000       0.332722         9.0538 
 189   0.0000       0.339166         9.2292 
 190   0.0000       0.339833         9.2473 
 191   0.0000       0.340821         9.2742 
 192   0.0000       0.345882         9.4119 
 193   0.0000       0.348247         9.4763 
 194   0.0000       0.350154         9.5282 
 195   0.0000       0.353505         9.6194 
 196   0.0000       0.357774         9.7355 
 197   0.0000       0.359344         9.7782 
 198   0.0000       0.363348         9.8872 
 199   0.0000       0.363716         9.8972 
 200   0.0000       0.365726         9.9519 
 201   0.0000       0.370129        10.0717 
 202   0.0000       0.374209        10.1828 
 203   0.0000       0.379613        10.3298 
 204   0.0000       0.380587        10.3563 
 205   0.0000       0.382808        10.4167 
 206   0.0000       0.388194        10.5633 
 207   0.0000       0.389779        10.6064 
 208   0.0000       0.393342        10.7034 
 209   0.0000       0.396330        10.7847 
 210   0.0000       0.401322        10.9205 
 211   0.0000       0.404460        11.0059 
 212   0.0000       0.406225        11.0540 
 213   0.0000       0.408279        11.1098 
 214   0.0000       0.411371        11.1940 
 215   0.0000       0.414434        11.2773 
 216   0.0000       0.416162        11.3244 
 217   0.0000       0.416686        11.3386 
 218   0.0000       0.422014        11.4836 
 219   0.0000       0.427325        11.6281 
 220   0.0000       0.429367        11.6837 
 221   0.0000       0.436597        11.8804 
 222   0.0000       0.438971        11.9450 
 223   0.0000       0.441843        12.0232 
 224   0.0000       0.442819        12.0497 
 225   0.0000       0.445886        12.1332 
 226   0.0000       0.448269        12.1980 
 227   0.0000       0.449304        12.2262 
 228   0.0000       0.454282        12.3616 
 229   0.0000       0.455360        12.3910 
 230   0.0000       0.460086        12.5196 
 231   0.0000       0.462139        12.5754 
 232   0.0000       0.466783        12.7018 
 233   0.0000       0.468978        12.7615 
 234   0.0000       0.475291        12.9333 
 235   0.0000       0.478406        13.0181 
 236   0.0000       0.480265        13.0687 
 237   0.0000       0.487335        13.2611 
 238   0.0000       0.491963        13.3870 
 239   0.0000       0.496446        13.5090 
 240   0.0000       0.498599        13.5676 
 241   0.0000       0.501203        13.6384 
 242   0.0000       0.505358        13.7515 
 243   0.0000       0.507030        13.7970 
 244   0.0000       0.512243        13.9388 
 245   0.0000       0.512914        13.9571 
 246   0.0000       0.515744        14.0341 
 247   0.0000       0.519726        14.1425 
 248   0.0000       0.520798        14.1716 
 249   0.0000       0.522926        14.2295 
 250   0.0000       0.535941        14.5837 
 251   0.0000       0.541049        14.7227 
 252   0.0000       0.544485        14.8162 
 253   0.0000       0.546008        14.8576 
 254   0.0000       0.549763        14.9598 
 255   0.0000       0.557481        15.1698 
 256   0.0000       0.557715        15.1762 
 257   0.0000       0.559877        15.2350 
 258   0.0000       0.563475        15.3329 
 259   0.0000       0.564576        15.3629 
 260   0.0000       0.572592        15.5810 
 261   0.0000       0.576624        15.6907 
 262   0.0000       0.577545        15.7158 
 263   0.0000       0.579529        15.7698 
 264   0.0000       0.590735        16.0747 
 265   0.0000       0.593775        16.1574 
 266   0.0000       0.594719        16.1831 
 267   0.0000       0.598374        16.2826 
 268   0.0000       0.599388        16.3102 
 269   0.0000       0.602696        16.4002 
[...]
B(  6-N ,  7-C ) :   0.6073 B(  6-N ,  8-C ) :  -0.2587 B(  7-C ,  8-C ) :   1.2261 
B(  7-C ,  9-C ) :   0.2323 B(  7-C , 10-C ) :  -0.1971 B(  7-C , 16-S ) :   0.7964 
B(  8-C ,  9-C ) :   0.9394 B(  8-C , 16-S ) :   0.1187 B(  8-C , 22-H ) :   1.0568 
B(  9-C , 10-C ) :   0.3212 B(  9-C , 11-C ) :   0.1856 B(  9-C , 16-S ) :   0.2128 
B(  9-C , 23-H ) :   1.0977 B( 10-C , 11-C ) :   0.4066 B( 10-C , 13-C ) :   0.1155 
B( 10-C , 15-S ) :   0.1409 B( 10-C , 16-S ) :   0.7728 B( 10-C , 23-H ) :  -0.1223 
B( 11-C , 12-C ) :   0.6985 B( 11-C , 13-C ) :  -0.1964 B( 11-C , 15-S ) :   0.4328 
B( 12-C , 13-C ) :   1.1598 B( 12-C , 14-C ) :   0.1652 B( 12-C , 15-S ) :   0.2166 
B( 12-C , 24-H ) :   1.0691 B( 13-C , 14-C ) :   1.3330 B( 13-C , 15-S ) :   0.1238 
B( 13-C , 25-H ) :   0.9663 B( 14-C , 15-S ) :   1.1061 B( 14-C , 26-H ) :   1.0040 


-------
TIMINGS
-------

Total SCF time: 0 days 0 hours 3 min 42 sec 

Total time                  ....     222.822 sec
Sum of individual times     ....     219.627 sec  ( 98.6%)

Fock matrix formation       ....     211.918 sec  ( 95.1%)
  Split-RI-J                ....      11.699 sec  (  5.5% of F)
  Chain of spheres X        ....     186.077 sec  ( 87.8% of F)
  XC integration            ....       8.554 sec  (  4.0% of F)
    Basis function eval.    ....       1.547 sec  ( 18.1% of XC)
    Density eval.           ....       3.277 sec  ( 38.3% of XC)
    XC-Functional eval.     ....       0.152 sec  (  1.8% of XC)
    XC-Potential eval.      ....       3.339 sec  ( 39.0% of XC)
Diagonalization             ....       0.465 sec  (  0.2%)
Density matrix formation    ....       0.045 sec  (  0.0%)
Population analysis         ....       0.350 sec  (  0.2%)
Initial guess               ....       0.565 sec  (  0.3%)
Orbital Transformation      ....       0.000 sec  (  0.0%)
Orbital Orthonormalization  ....       0.494 sec  (  0.2%)
DIIS solution               ....       0.177 sec  (  0.1%)
SOSCF solution              ....       0.333 sec  (  0.1%)
Grid generation             ....       5.773 sec  (  2.6%)

Maximum memory used throughout the entire SCF-calculation: 246.1 MB


           ************************************************************
           *        Program running with 4 parallel MPI-processes     *
           *              working on a common directory               *
           ************************************************************
------------------------------------------------------------------------------
                        ORCA TD-DFT/TDA CALCULATION
------------------------------------------------------------------------------

Input orbitals are from        ... x3lyp-train-15_job2.gbw
CI-vector output               ... x3lyp-train-15_job2.cis
Tamm-Dancoff approximation     ... operative
CIS-Integral strategy          ... AO-integrals
Integral handling              ... AO integral Direct
Max. core memory used          ... 4000 MB
Reference state                ... RHF
Generation of triplets         ... off
Follow IRoot                   ... off
Number of operators            ... 1
Orbital ranges used for CIS calculation:
 Operator 0:  Orbitals  30... 74  to  75...965
XAS localization array:
 Operator 0:  Orbitals  -1... -1

-------------------
XC-INTEGRATION GRID
-------------------

General Integration Accuracy     IntAcc      ... 3.467
Radial Grid Type                 RadialGrid  ... OptM3 with GC (2021)
Angular Grid (max. ang.)         AngularGrid ... 1 (Lebedev-50)
Angular grid pruning method      GridPruning ... 4 (adaptive)
Weight generation scheme         WeightScheme... Becke
Basis function cutoff            BFCut       ... 1.0000e-11
Integration weight cutoff        WCut        ... 1.0000e-14
Angular grids for H and He will be reduced by one unit
Partially contracted basis set               ... off
Rotationally invariant grid construction     ... off

Total number of grid points                  ...    22091
Total number of batches                      ...      357
Average number of points per batch           ...       61
Average number of grid points per atom       ...      818

---------------------
COSX-INTEGRATION GRID
---------------------

General Integration Accuracy     IntAcc      ... 3.067
Radial Grid Type                 RadialGrid  ... OptM3 with GC (2021)
Angular Grid (max. ang.)         AngularGrid ... 1 (Lebedev-50)
Angular grid pruning method      GridPruning ... 4 (adaptive)
Weight generation scheme         WeightScheme... Becke
Basis function cutoff            BFCut       ... 1.0000e-11
Integration weight cutoff        WCut        ... 1.0000e-14
Angular grids for H and He will be reduced by one unit
Partially contracted basis set               ... on
Rotationally invariant grid construction     ... off

Total number of grid points                  ...     9952
Total number of batches                      ...      170
Average number of points per batch           ...       58
Average number of grid points per atom       ...      369

---------------
TD-DFT XC SETUP
---------------

DFT calculation                         ... on
Name of the grid file                   ... x3lyp-train-15_job2.grid_cis.tmp
Exchange functional (TD-DFT)            ... X
Correlation functional (TD-DFT)         ... LYP
 LDA part of GGA corr.  LDAOpt (TD-DFT) ... VWN-5
Hybrid DFT                              ... on
   Exchange mixing (TD-DFT)             ...  0.218
   GGA exch. scaling (TD-DFT)           ...  0.709
   GGA corr. scaling (TD-DFT)           ...  0.871

Building densities             ... done
Calculating rho(r) on the grid ... done
Building xc-kernel on the grid ... done
                    *** TD-DFT CALCULATION INITIALIZED ***

---------------------------------
    LR-CPCM (non-equilibrium)
---------------------------------

Setting up LR-CPCM             ... done

------------------------
DAVIDSON-DIAGONALIZATION
------------------------

Dimension of the eigenvalue problem            ...  40095
Number of roots to be determined               ...     10
Maximum size of the expansion space            ...     70
Maximum number of iterations                   ...    100
Convergence tolerance for the residual         ...    1.000e-06
Convergence tolerance for the energies         ...    1.000e-06
Orthogonality tolerance                        ...    1.000e-14
Level Shift                                    ...    0.000e+00
Constructing the preconditioner                ... o.k.
Building the initial guess                     ... o.k.
Number of trial vectors determined             ...     70


                       ****Iteration    0****

   Memory handling for direct AO based CIS:
   Memory per vector needed      ...    42 MB
   Memory needed                 ...  1281 MB
   Memory available              ...  4000 MB
   Number of vectors per batch   ...    93
   Number of batches             ...     1
   Time for densities:            0.502
   Time for RI-J (Direct):       14.282
   Time for K (COSX):            86.065
   Time for XC-Integration:      30.844
   Time for LR-CPCM terms:       15.114
   Time for Sigma-Completion:     0.394
   Size of expansion space: 30
   Lowest Energy          :     0.101325751699
   Maximum Energy change  :     0.180269578009 (vector 9)
   Maximum residual norm  :     0.017796941256

                       ****Iteration    1****
   Time for densities:            0.176
   Time for RI-J (Direct):        8.329
   Time for K (COSX):            30.832
   Time for XC-Integration:      10.812
   Time for LR-CPCM terms:        6.874
   Time for Sigma-Completion:     0.130
   Size of expansion space: 40
   Lowest Energy          :     0.093097366473
   Maximum Energy change  :     0.015463891228 (vector 6)
   Maximum residual norm  :     0.000713593210

                       ****Iteration    2****
   Time for densities:            0.176
   Time for RI-J (Direct):        8.384
   Time for K (COSX):            30.718
   Time for XC-Integration:      10.863
   Time for LR-CPCM terms:        6.872
   Time for Sigma-Completion:     0.132
   Size of expansion space: 50
   Lowest Energy          :     0.092653998469
   Maximum Energy change  :     0.000810628904 (vector 6)
   Maximum residual norm  :     0.000053926276

                       ****Iteration    3****
   Time for densities:            0.179
   Time for RI-J (Direct):        8.400
   Time for K (COSX):            30.290
   Time for XC-Integration:      10.782
   Time for LR-CPCM terms:        6.835
   Time for Sigma-Completion:     0.170
   Size of expansion space: 60
   Lowest Energy          :     0.092624372827
   Maximum Energy change  :     0.000070620831 (vector 6)
   Maximum residual norm  :     0.000003378045

                       ****Iteration    4****
   Time for densities:            0.169
   Time for RI-J (Direct):        8.357
   Time for K (COSX):            30.843
   Time for XC-Integration:      10.629
   Time for LR-CPCM terms:        6.772
   Time for Sigma-Completion:     0.138
   Size of expansion space: 70
   Lowest Energy          :     0.092623460406
   Maximum Energy change  :     0.000004231224 (vector 7)
   Maximum residual norm  :     0.000000222150

      *** CONVERGENCE OF RESIDUAL NORM REACHED ***

Storing the converged CI vectors               ... x3lyp-train-15_job2.cis1

                 *** DAVIDSON DONE ***

Total time for solving the CIS problem:   376.719sec

------------------------------------
TD-DFT/TDA EXCITED STATES (SINGLETS)
------------------------------------

the weight of the individual excitations are printed if larger than 1.0e-02

STATE  1:  E=   0.092623 au      2.520 eV    20328.5 cm**-1 <S**2> =   0.000000
    74a ->  75a  :     0.954059 (c=  0.97675962)

STATE  2:  E=   0.099222 au      2.700 eV    21776.6 cm**-1 <S**2> =   0.000000
    72a ->  75a  :     0.962752 (c=  0.98119930)
    72a ->  76a  :     0.012854 (c= -0.11337748)

STATE  3:  E=   0.125932 au      3.427 eV    27638.8 cm**-1 <S**2> =   0.000000
    73a ->  75a  :     0.830995 (c= -0.91158912)
    74a ->  76a  :     0.128202 (c= -0.35805248)

STATE  4:  E=   0.135102 au      3.676 eV    29651.4 cm**-1 <S**2> =   0.000000
    70a ->  75a  :     0.024867 (c=  0.15769170)
    71a ->  75a  :     0.933327 (c= -0.96608844)
    74a ->  76a  :     0.024645 (c=  0.15698641)

STATE  5:  E=   0.142591 au      3.880 eV    31295.0 cm**-1 <S**2> =   0.000000
    69a ->  75a  :     0.013539 (c= -0.11635714)
    70a ->  75a  :     0.632567 (c=  0.79534074)
    71a ->  75a  :     0.051262 (c=  0.22641204)
    73a ->  75a  :     0.029389 (c= -0.17143231)
    74a ->  76a  :     0.245262 (c=  0.49523935)

STATE  6:  E=   0.148402 au      4.038 eV    32570.5 cm**-1 <S**2> =   0.000000
    68a ->  75a  :     0.953519 (c=  0.97648274)
    68a ->  76a  :     0.014564 (c= -0.12067996)

STATE  7:  E=   0.149093 au      4.057 eV    32722.2 cm**-1 <S**2> =   0.000000
    68a ->  75a  :     0.014822 (c=  0.12174510)
    69a ->  75a  :     0.098044 (c= -0.31311919)
    70a ->  75a  :     0.299483 (c= -0.54725085)
    73a ->  75a  :     0.051182 (c= -0.22623369)
    74a ->  76a  :     0.483871 (c=  0.69560835)

STATE  8:  E=   0.158225 au      4.306 eV    34726.4 cm**-1 <S**2> =   0.000000
    69a ->  75a  :     0.832284 (c=  0.91229601)
    73a ->  75a  :     0.034875 (c= -0.18674806)
    74a ->  76a  :     0.072847 (c=  0.26990108)

STATE  9:  E=   0.167855 au      4.568 eV    36839.8 cm**-1 <S**2> =   0.000000
    67a ->  75a  :     0.719233 (c= -0.84807598)
    73a ->  76a  :     0.026095 (c=  0.16153853)
    74a ->  77a  :     0.216403 (c=  0.46519084)

STATE 10:  E=   0.178398 au      4.854 eV    39153.9 cm**-1 <S**2> =   0.000000
    74a ->  77a  :     0.011933 (c= -0.10923609)
    74a ->  78a  :     0.373278 (c=  0.61096520)
    74a ->  79a  :     0.067364 (c=  0.25954505)
    74a ->  80a  :     0.484065 (c=  0.69574757)
    74a ->  84a  :     0.012027 (c= -0.10966866)


-----------------------------
TD-DFT/TDA-EXCITATION SPECTRA
-----------------------------

Center of mass = (  0.6757, -0.1223, -0.5530)
Calculating the Dipole integrals                  ... done
Transforming integrals                            ... done
Calculating the Linear Momentum integrals         ... done
Transforming integrals                            ... done
Calculating angular momentum integrals            ... done
Transforming integrals                            ... done

-----------------------------------------------------------------------------
         ABSORPTION SPECTRUM VIA TRANSITION ELECTRIC DIPOLE MOMENTS
-----------------------------------------------------------------------------
State   Energy    Wavelength  fosc         T2        TX        TY        TZ  
        (cm-1)      (nm)                 (au**2)    (au)      (au)      (au) 
-----------------------------------------------------------------------------
   1   20328.5    491.9   1.770317046  28.66958   5.35228  -0.14923  -0.02061
   2   21776.6    459.2   0.024254039   0.36666  -0.60453   0.03002  -0.01751
   3   27638.8    361.8   0.034533611   0.41134  -0.58514   0.18872   0.18256
   4   29651.4    337.3   0.006826844   0.07580  -0.27315   0.03372   0.00714
   5   31295.0    319.5   0.005699682   0.05996   0.14918  -0.17005  -0.09375
   6   32570.5    307.0   0.002942078   0.02974  -0.11772  -0.12045  -0.03702
   7   32722.2    305.6   0.228627057   2.30017   1.09893   0.77361   0.70288
   8   34726.4    288.0   0.039869638   0.37797  -0.59377   0.12331   0.10098
   9   36839.8    271.4   0.030913420   0.27625  -0.48276   0.16536   0.12591
  10   39153.9    255.4   0.000683864   0.00575   0.01637   0.04153  -0.06130

-----------------------------------------------------------------------------
         ABSORPTION SPECTRUM VIA TRANSITION VELOCITY DIPOLE MOMENTS
-----------------------------------------------------------------------------
State   Energy    Wavelength   fosc        P2         PX        PY        PZ  
        (cm-1)      (nm)                 (au**2)     (au)      (au)      (au) 
-----------------------------------------------------------------------------
   1   20328.5    491.9   0.437670118   0.06081  -0.24557   0.01829   0.01308
   2   21776.6    459.2   0.006942739   0.00103   0.03193  -0.00294   0.00225
   3   27638.8    361.8   0.016988287   0.00321   0.04605  -0.02644  -0.01973
   4   29651.4    337.3   0.001447261   0.00029   0.01696  -0.00074  -0.00222
   5   31295.0    319.5   0.017977877   0.00385   0.00925  -0.04820  -0.03790
   6   32570.5    307.0   0.000738851   0.00016   0.00761  -0.00830   0.00615
   7   32722.2    305.6   0.027987349   0.00626  -0.07727   0.01380   0.00991
   8   34726.4    288.0   0.028738016   0.00682   0.04466  -0.05178  -0.04631
   9   36839.8    271.4   0.021180243   0.00533   0.07267  -0.00499  -0.00522
  10   39153.9    255.4   0.002566060   0.00069  -0.00242  -0.01677   0.01999

-------------------------------------------------------------------
                             CD SPECTRUM
-------------------------------------------------------------------
State  Energy     Wavelength     R         MX        MY        MZ   
       (cm-1)       (nm)     (1e40*cgs)   (au)      (au)      (au)  
-------------------------------------------------------------------
   1   20328.5    491.9    100.90202   0.03180  -0.34862   0.39788
   2   21776.6    459.2    -76.74012   0.27377   0.09929   0.01445
   3   27638.8    361.8     -1.31935   0.00406   0.11072  -0.11679
   4   29651.4    337.3      0.18993   0.00332   0.05286  -0.06613
   5   31295.0    319.5     -2.83330   0.00492   0.10866  -0.12516
   6   32570.5    307.0     18.77871  -0.27542  -0.05309  -0.02737
   7   32722.2    305.6    -24.56236  -0.03420   0.04916  -0.07476
   8   34726.4    288.0     -2.03699   0.01105   0.19649  -0.21776
   9   36839.8    271.4      0.86119   0.00186   0.02789  -0.01500
  10   39153.9    255.4     -0.77079  -0.03374  -0.05023  -0.01637

-------------------------------------------------------------------
         CD SPECTRUM VIA TRANSITION VELOCITY DIPOLE MOMENTS        
-------------------------------------------------------------------
State  Energy     Wavelength     R         MX        MY        MZ   
       (cm-1)       (nm)     (1e40*cgs)   (au)      (au)      (au)  
-------------------------------------------------------------------
   1   20328.5    491.9    -45.71938   0.03180  -0.34862   0.39788
   2   21776.6    459.2     40.30520   0.27377   0.09929   0.01445
   3   27638.8    361.8     -1.63492   0.00406   0.11072  -0.11679
   4   29651.4    337.3      0.57364   0.00332   0.05286  -0.06613
   5   31295.0    319.5     -1.48192   0.00492   0.10866  -0.12516
   6   32570.5    307.0     -5.79150  -0.27542  -0.05309  -0.02737
   7   32722.2    305.6      8.15901  -0.03420   0.04916  -0.07476
   8   34726.4    288.0      1.20393   0.01105   0.19649  -0.21776
   9   36839.8    271.4      0.20825   0.00186   0.02789  -0.01500
  10   39153.9    255.4      1.57740  -0.03374  -0.05023  -0.01637

Total run time:      381.440 sec

           *** ORCA-CIS/TD-DFT FINISHED WITHOUT ERROR ***

Maximum memory used throughout the entire CIS-calculation: 1204.9 MB

-----------------------
CIS/TD-DFT TOTAL ENERGY
-----------------------

    E(SCF)  =  -1820.993085342 Eh
    DE(CIS) =      0.092623460 Eh (Root  1)
    ----------------------------- ---------
    E(tot)  =  -1820.900461882 Eh


-------------------------   --------------------
FINAL SINGLE POINT ENERGY     -1820.900461881898
-------------------------   --------------------


                            ***************************************
                            *     ORCA property calculations      *
                            ***************************************

                                    ---------------------
                                    Active property flags
                                    ---------------------
   (+) Dipole Moment


------------------------------------------------------------------------------
                       ORCA ELECTRIC PROPERTIES CALCULATION
------------------------------------------------------------------------------

Dipole Moment Calculation                       ... on
Quadrupole Moment Calculation                   ... off
Polarizability Calculation                      ... off
GBWName                                         ... x3lyp-train-15_job2.gbw
Electron density                                ... x3lyp-train-15_job2.scfp
The origin for moment calculation is the CENTER OF MASS  = ( 0.675731, -0.122342 -0.552986)

-------------
DIPOLE MOMENT
-------------
                                X             Y             Z
Electronic contribution:      8.64484      -1.72695      -1.44517
Nuclear contribution   :     -7.35507       2.57678       2.28546
                        -----------------------------------------
Total Dipole Moment    :      1.28977       0.84983       0.84029
                        -----------------------------------------
Magnitude (a.u.)       :      1.75835
Magnitude (Debye)      :      4.46938



--------------------
Rotational spectrum 
--------------------
 
Rotational constants in cm-1:     0.049971     0.003383     0.003172 
Rotational constants in MHz :  1498.107835   101.431662    95.085874 

 Dipole components along the rotational axes: 
x,y,z [a.u.] :     1.248297     1.235618     0.082500 
x,y,z [Debye]:     3.172919     3.140691     0.209698 

 

Timings for individual modules:

Sum of individual times         ...      619.489 sec (=  10.325 min)
GTO integral calculation        ...        4.079 sec (=   0.068 min)   0.7 %
SCF iterations                  ...      226.507 sec (=   3.775 min)  36.6 %
CIS module                      ...      388.903 sec (=   6.482 min)  62.8 %



                             ****ORCA TERMINATED NORMALLY****
TOTAL RUN TIME: 0 days 2 hours 11 minutes 26 seconds 217 msec
