
                                 *****************
                                 * O   R   C   A *
                                 *****************

                                            #,                                       
                                            ###                                      
                                            ####                                     
                                            #####                                    
                                            ######                                   
                                           ########,                                 
                                     ,,################,,,,,                         
                               ,,#################################,,                 
                          ,,##########################################,,             
                       ,#########################################, ''#####,          
                    ,#############################################,,   '####,        
                  ,##################################################,,,,####,       
                ,###########''''           ''''###############################       
              ,#####''   ,,,,##########,,,,          '''####'''          '####       
            ,##' ,,,,###########################,,,                        '##       
           ' ,,###''''                  '''############,,,                           
         ,,##''                                '''############,,,,        ,,,,,,###''
      ,#''                                            '''#######################'''  
     '                                                          ''''####''''         
             ,#######,   #######,   ,#######,      ##                                
            ,#'     '#,  ##    ##  ,#'     '#,    #''#        ######   ,####,        
            ##       ##  ##   ,#'  ##            #'  '#       #        #'  '#        
            ##       ##  #######   ##           ,######,      #####,   #    #        
            '#,     ,#'  ##    ##  '#,     ,#' ,#      #,         ##   #,  ,#        
             '#######'   ##     ##  '#######'  #'      '#     #####' # '####'        



                  #######################################################
                  #                        -***-                        #
                  #          Department of theory and spectroscopy      #
                  #    Directorship and core code : Frank Neese         #
                  #        Max Planck Institute fuer Kohlenforschung    #
                  #                Kaiser Wilhelm Platz 1               #
                  #                 D-45470 Muelheim/Ruhr               #
                  #                      Germany                        #
                  #                                                     #
                  #                  All rights reserved                #
                  #                        -***-                        #
                  #######################################################


                         Program Version 5.0.2 -  RELEASE  -


 With contributions from (in alphabetic order):
   Daniel Aravena         : Magnetic Suceptibility
   Michael Atanasov       : Ab Initio Ligand Field Theory (pilot matlab implementation)
   Alexander A. Auer      : GIAO ZORA, VPT2 properties, NMR spectrum
   Ute Becker             : Parallelization
   Giovanni Bistoni       : ED, misc. LED, open-shell LED, HFLD
   Martin Brehm           : Molecular dynamics
   Dmytro Bykov           : SCF Hessian
   Vijay G. Chilkuri      : MRCI spin determinant printing, contributions to CSF-ICE
   Dipayan Datta          : RHF DLPNO-CCSD density
   Achintya Kumar Dutta   : EOM-CC, STEOM-CC
   Dmitry Ganyushin       : Spin-Orbit,Spin-Spin,Magnetic field MRCI
   Miquel Garcia          : C-PCM and meta-GGA Hessian, CC/C-PCM, Gaussian charge scheme
   Yang Guo               : DLPNO-NEVPT2, F12-NEVPT2, CIM, IAO-localization
   Andreas Hansen         : Spin unrestricted coupled pair/coupled cluster methods
   Benjamin Helmich-Paris : MC-RPA, TRAH-SCF, COSX integrals
   Lee Huntington         : MR-EOM, pCC
   Robert Izsak           : Overlap fitted RIJCOSX, COSX-SCS-MP3, EOM
   Marcus Kettner         : VPT2
   Christian Kollmar      : KDIIS, OOCD, Brueckner-CCSD(T), CCSD density, CASPT2, CASPT2-K
   Simone Kossmann        : Meta GGA functionals, TD-DFT gradient, OOMP2, MP2 Hessian
   Martin Krupicka        : Initial AUTO-CI
   Lucas Lang             : DCDCAS
   Marvin Lechner         : AUTO-CI (C++ implementation), FIC-MRCC
   Dagmar Lenk            : GEPOL surface, SMD
   Dimitrios Liakos       : Extrapolation schemes; Compound Job, initial MDCI parallelization
   Dimitrios Manganas     : Further ROCIS development; embedding schemes
   Dimitrios Pantazis     : SARC Basis sets
   Anastasios Papadopoulos: AUTO-CI, single reference methods and gradients
   Taras Petrenko         : DFT Hessian,TD-DFT gradient, ASA, ECA, R-Raman, ABS, FL, XAS/XES, NRVS
   Peter Pinski           : DLPNO-MP2, DLPNO-MP2 Gradient
   Christoph Reimann      : Effective Core Potentials
   Marius Retegan         : Local ZFS, SOC
   Christoph Riplinger    : Optimizer, TS searches, QM/MM, DLPNO-CCSD(T), (RO)-DLPNO pert. Triples
   Tobias Risthaus        : Range-separated hybrids, TD-DFT gradient, RPA, STAB
   Michael Roemelt        : Original ROCIS implementation
   Masaaki Saitow         : Open-shell DLPNO-CCSD energy and density
   Barbara Sandhoefer     : DKH picture change effects
   Avijit Sen             : IP-ROCIS
   Kantharuban Sivalingam : CASSCF convergence, NEVPT2, FIC-MRCI
   Bernardo de Souza      : ESD, SOC TD-DFT
   Georgi Stoychev        : AutoAux, RI-MP2 NMR, DLPNO-MP2 response
   Willem Van den Heuvel  : Paramagnetic NMR
   Boris Wezisla          : Elementary symmetry handling
   Frank Wennmohs         : Technical directorship


 We gratefully acknowledge several colleagues who have allowed us to
 interface, adapt or use parts of their codes:
   Stefan Grimme, W. Hujo, H. Kruse, P. Pracht,  : VdW corrections, initial TS optimization,
                  C. Bannwarth, S. Ehlert          DFT functionals, gCP, sTDA/sTD-DF
   Ed Valeev, F. Pavosevic, A. Kumar             : LibInt (2-el integral package), F12 methods
   Garnet Chan, S. Sharma, J. Yang, R. Olivares  : DMRG
   Ulf Ekstrom                                   : XCFun DFT Library
   Mihaly Kallay                                 : mrcc  (arbitrary order and MRCC methods)
   Jiri Pittner, Ondrej Demel                    : Mk-CCSD
   Frank Weinhold                                : gennbo (NPA and NBO analysis)
   Christopher J. Cramer and Donald G. Truhlar   : smd solvation model
   Lars Goerigk                                  : TD-DFT with DH, B97 family of functionals
   V. Asgeirsson, H. Jonsson                     : NEB implementation
   FAccTs GmbH                                   : IRC, NEB, NEB-TS, DLPNO-Multilevel, CI-OPT
                                                   MM, QMMM, 2- and 3-layer-ONIOM, Crystal-QMMM,
                                                   LR-CPCM, SF, NACMEs, symmetry and pop. for TD-DFT,
                                                   nearIR, NL-DFT gradient (VV10), updates on ESD,
                                                   ML-optimized integration grids
   S Lehtola, MJT Oliveira, MAL Marques          : LibXC Library
   Liviu Ungur et al                             : ANISO software


 Your calculation uses the libint2 library for the computation of 2-el integrals
 For citations please refer to: http://libint.valeyev.net

 Your ORCA version has been built with support for libXC version: 5.1.0
 For citations please refer to: https://tddft.org/programs/libxc/

 This ORCA versions uses:
   CBLAS   interface :  Fast vector & matrix operations
   LAPACKE interface :  Fast linear algebra routines
   SCALAPACK package :  Parallel linear algebra routines
   Shared memory     :  Shared parallel matrices
   BLAS/LAPACK       :  OpenBLAS 0.3.15  USE64BITINT DYNAMIC_ARCH NO_AFFINITY Sandybridge SINGLE_THREADED
        Core in use  :  Sandybridge
   Copyright (c) 2011-2014, The OpenBLAS Project


Your calculation utilizes the SMD solvation module
Please cite in your paper:
A.V. Marenich, C.J. Cramer, D.G. Truhlar J. Phys. Chem. B, 113, (2009), 6378 

================================================================================

----- Orbital basis set information -----
Your calculation utilizes the basis: aug-cc-pVTZ 
    H, B-Ne : Obtained from the ccRepo (grant-hill.group.shef.ac.uk/ccrepo) Feb. 2017
              R. A. Kendall, T. H. Dunning, Jr., R. J. Harrison, J. Chem. Phys. 96, 6796 (1992)
         He : Obtained from the ccRepo (grant-hill.group.shef.ac.uk/ccrepo) Feb. 2017
              D. E. Woon, T. H. Dunning, Jr., J. Chem. Phys. 100, 2975 (1994)
  Li-Be, Na : Obtained from the ccRepo (grant-hill.group.shef.ac.uk/ccrepo) Feb. 2017
              B. P. Prascher, D. E. Woon, K. A. Peterson, T. H. Dunning, Jr., A. K. Wilson, Theor. Chem. Acc. 128, 69 (2011)
         Mg : Obtained from the Peterson Research Group Website (tyr0.chem.wsu.edu/~kipeters) Feb. 2017
              B. P. Prascher, D. E. Woon, K. A. Peterson, T. H. Dunning, Jr., A. K. Wilson, Theor. Chem. Acc. 128, 69 (2011)
      Al-Ar : Obtained from the ccRepo (grant-hill.group.shef.ac.uk/ccrepo) Feb. 2017
              D. E. Woon, T. H. Dunning, Jr., J. Chem. Phys. 98, 1358 (1993)
      Sc-Zn : Obtained from the ccRepo (grant-hill.group.shef.ac.uk/ccrepo) Feb. 2017
              N. B. Balabanov, K. A. Peterson, J. Chem. Phys. 123, 064107 (2005)
              N. B. Balabanov, K. A. Peterson, J. Chem. Phys. 125, 074110 (2006)
      Ga-Kr : Obtained from the ccRepo (grant-hill.group.shef.ac.uk/ccrepo) Feb. 2017
              A. K. Wilson, D. E. Woon, K. A. Peterson, T. H. Dunning, Jr., J. Chem. Phys. 110, 7667 (1999)
     Ag, Au : Obtained from the Peterson Research Group Website (tyr0.chem.wsu.edu/~kipeters) Feb. 2017
              K. A. Peterson, C. Puzzarini, Theor. Chem. Acc. 114, 283 (2005)

The basis set includes element-specific modifications.

Your calculation utilizes the basis: cc-pVTZ 
       H, B-Ne : Obtained from the ccRepo (grant-hill.group.shef.ac.uk/ccrepo) Feb. 2017
                 T. H. Dunning, Jr., J. Chem. Phys. 90, 1007 (1989)
            He : Obtained from the ccRepo (grant-hill.group.shef.ac.uk/ccrepo) Feb. 2017
                 D. E. Woon, T. H. Dunning, Jr., J. Chem. Phys. 100, 2975 (1994)
  Li-Be, Na-Mg : Obtained from the ccRepo (grant-hill.group.shef.ac.uk/ccrepo) Feb. 2017
                 B. P. Prascher, D. E. Woon, K. A. Peterson, T. H. Dunning, Jr., A. K. Wilson, Theor. Chem. Acc. 128, 69 (2011)
         Al-Ar : Obtained from the ccRepo (grant-hill.group.shef.ac.uk/ccrepo) Feb. 2017
                 D. E. Woon, T. H. Dunning, Jr., J. Chem. Phys. 98, 1358 (1993)
            Ca : Obtained from the Peterson Research Group Website (tyr0.chem.wsu.edu/~kipeters) Feb. 2017
                 J. Koput, K. A. Peterson, J. Phys. Chem. 106, 9595 (2002)
         Sc-Zn : Obtained from the ccRepo (grant-hill.group.shef.ac.uk/ccrepo) Feb. 2017
                 N. B. Balabanov, K. A. Peterson, J. Chem. Phys. 123, 064107 (2005)
                 N. B. Balabanov, K. A. Peterson, J. Chem. Phys. 125, 074110 (2006)
         Ga-Kr : Obtained from the ccRepo (grant-hill.group.shef.ac.uk/ccrepo) Feb. 2017
                 A. K. Wilson, D. E. Woon, K. A. Peterson, T. H. Dunning, Jr., J. Chem. Phys. 110, 7667 (1999)
             Y : Obtained from the ccRepo (grant-hill.group.shef.ac.uk/ccrepo) Feb. 2017
                 K. A. Peterson, D. Figgen, M. Dolg, H. Stoll, J. Chem. Phys. 126, 124101 (2007)
        Ag, Au : Obtained from the Peterson Research Group Website (tyr0.chem.wsu.edu/~kipeters) Feb. 2017
                 K. A. Peterson, C. Puzzarini, Theor. Chem. Acc. 114, 283 (2005)

----- AuxJ basis set information -----
Your calculation utilizes the auxiliary basis: aug-cc-pVTZ/JK 
  H, B-F, Al-Cl, Ga-Br : Obtained from the TURBOMOLE 7.0 basis set library

The basis set includes element-specific modifications.

Your calculation utilizes the auxiliary basis: cc-pVTZ/JK 
  H, B-F, Al-Cl, Ga-Br : Obtained from the TURBOMOLE 7.0 basis set library

----- AuxC basis set information -----
Your calculation utilizes the auxiliary basis: aug-cc-pVTZ/C 
  H-He, B-F, Al-Ar, Ga-Kr : Obtained from the EMSL Basis Set Exchange (bse.pnl.gov) Feb. 2017
                            F. Weigend, A. Kohn, C. Hattig, J. Chem. Phys. 116, 3175 (2002)
                   Be, Mg : Obtained from the TURBOMOLE 7.0 basis set library
                            C. Haettig, Phys. Chem. Chem. Phys. 7, 59 (2005)
                       Ne : Obtained from the EMSL Basis Set Exchange (bse.pnl.gov) Feb. 2017
                            C. Haettig, Phys. Chem. Chem. Phys. 7, 59 (2005)
                            F. Weigend, A. Kohn, C. Hattig, J. Chem. Phys. 116, 3175 (2002)
                    Sc-Zn : Obtained from the EMSL Basis Set Exchange (bse.pnl.gov) Feb. 2017
                            J. G. Hill, J. A. Platts, J. Chem. Phys. 128, 044104 (2008)

The basis set includes element-specific modifications.

Your calculation utilizes the auxiliary basis: cc-pVTZ/C 
  Obtained from the EMSL Basis Set Exchange (bse.pnl.gov) Feb. 2017
  H-He, B-F, Al-Ar, Ga-Kr : F. Weigend, A. Kohn, C. Hattig, J. Chem. Phys. 116, 3175 (2002)
             Li-Be, Na-Mg : C. Haettig, Phys. Chem. Chem. Phys. 7, 59 (2005)
                       Ne : C. Haettig, Phys. Chem. Chem. Phys. 7, 59 (2005)
                            F. Weigend, A. Kohn, C. Hattig, J. Chem. Phys. 116, 3175 (2002)
                    Sc-Zn : J. G. Hill, J. A. Platts, J. Chem. Phys. 128, 044104 (2008)

================================================================================
                                        WARNINGS
                       Please study these warnings very carefully!
================================================================================


WARNING: Geometry Optimization
  ===> : Switching off AutoStart
         For restart on a previous wavefunction, please use MOREAD

INFO   : the flag for use of the SHARK integral package has been found!



***************************************
The coordinates will be read from file: 
***************************************


Your calculation utilizes the SMD solvation module
Please cite in your paper:
A.V. Marenich, C.J. Cramer, D.G. Truhlar J. Phys. Chem. B, 113, (2009), 6378 

================================================================================

----- Orbital basis set information -----
Your calculation utilizes the basis: aug-cc-pVTZ 
    H, B-Ne : Obtained from the ccRepo (grant-hill.group.shef.ac.uk/ccrepo) Feb. 2017
              R. A. Kendall, T. H. Dunning, Jr., R. J. Harrison, J. Chem. Phys. 96, 6796 (1992)
         He : Obtained from the ccRepo (grant-hill.group.shef.ac.uk/ccrepo) Feb. 2017
              D. E. Woon, T. H. Dunning, Jr., J. Chem. Phys. 100, 2975 (1994)
  Li-Be, Na : Obtained from the ccRepo (grant-hill.group.shef.ac.uk/ccrepo) Feb. 2017
              B. P. Prascher, D. E. Woon, K. A. Peterson, T. H. Dunning, Jr., A. K. Wilson, Theor. Chem. Acc. 128, 69 (2011)
         Mg : Obtained from the Peterson Research Group Website (tyr0.chem.wsu.edu/~kipeters) Feb. 2017
              B. P. Prascher, D. E. Woon, K. A. Peterson, T. H. Dunning, Jr., A. K. Wilson, Theor. Chem. Acc. 128, 69 (2011)
      Al-Ar : Obtained from the ccRepo (grant-hill.group.shef.ac.uk/ccrepo) Feb. 2017
              D. E. Woon, T. H. Dunning, Jr., J. Chem. Phys. 98, 1358 (1993)
      Sc-Zn : Obtained from the ccRepo (grant-hill.group.shef.ac.uk/ccrepo) Feb. 2017
              N. B. Balabanov, K. A. Peterson, J. Chem. Phys. 123, 064107 (2005)
              N. B. Balabanov, K. A. Peterson, J. Chem. Phys. 125, 074110 (2006)
      Ga-Kr : Obtained from the ccRepo (grant-hill.group.shef.ac.uk/ccrepo) Feb. 2017
              A. K. Wilson, D. E. Woon, K. A. Peterson, T. H. Dunning, Jr., J. Chem. Phys. 110, 7667 (1999)
     Ag, Au : Obtained from the Peterson Research Group Website (tyr0.chem.wsu.edu/~kipeters) Feb. 2017
              K. A. Peterson, C. Puzzarini, Theor. Chem. Acc. 114, 283 (2005)

The basis set includes element-specific modifications.

Your calculation utilizes the basis: cc-pVTZ 
       H, B-Ne : Obtained from the ccRepo (grant-hill.group.shef.ac.uk/ccrepo) Feb. 2017
                 T. H. Dunning, Jr., J. Chem. Phys. 90, 1007 (1989)
            He : Obtained from the ccRepo (grant-hill.group.shef.ac.uk/ccrepo) Feb. 2017
                 D. E. Woon, T. H. Dunning, Jr., J. Chem. Phys. 100, 2975 (1994)
  Li-Be, Na-Mg : Obtained from the ccRepo (grant-hill.group.shef.ac.uk/ccrepo) Feb. 2017
                 B. P. Prascher, D. E. Woon, K. A. Peterson, T. H. Dunning, Jr., A. K. Wilson, Theor. Chem. Acc. 128, 69 (2011)
         Al-Ar : Obtained from the ccRepo (grant-hill.group.shef.ac.uk/ccrepo) Feb. 2017
                 D. E. Woon, T. H. Dunning, Jr., J. Chem. Phys. 98, 1358 (1993)
            Ca : Obtained from the Peterson Research Group Website (tyr0.chem.wsu.edu/~kipeters) Feb. 2017
                 J. Koput, K. A. Peterson, J. Phys. Chem. 106, 9595 (2002)
         Sc-Zn : Obtained from the ccRepo (grant-hill.group.shef.ac.uk/ccrepo) Feb. 2017
                 N. B. Balabanov, K. A. Peterson, J. Chem. Phys. 123, 064107 (2005)
                 N. B. Balabanov, K. A. Peterson, J. Chem. Phys. 125, 074110 (2006)
         Ga-Kr : Obtained from the ccRepo (grant-hill.group.shef.ac.uk/ccrepo) Feb. 2017
                 A. K. Wilson, D. E. Woon, K. A. Peterson, T. H. Dunning, Jr., J. Chem. Phys. 110, 7667 (1999)
             Y : Obtained from the ccRepo (grant-hill.group.shef.ac.uk/ccrepo) Feb. 2017
                 K. A. Peterson, D. Figgen, M. Dolg, H. Stoll, J. Chem. Phys. 126, 124101 (2007)
        Ag, Au : Obtained from the Peterson Research Group Website (tyr0.chem.wsu.edu/~kipeters) Feb. 2017
                 K. A. Peterson, C. Puzzarini, Theor. Chem. Acc. 114, 283 (2005)

----- AuxJ basis set information -----
Your calculation utilizes the auxiliary basis: aug-cc-pVTZ/JK 
  H, B-F, Al-Cl, Ga-Br : Obtained from the TURBOMOLE 7.0 basis set library

The basis set includes element-specific modifications.

Your calculation utilizes the auxiliary basis: cc-pVTZ/JK 
  H, B-F, Al-Cl, Ga-Br : Obtained from the TURBOMOLE 7.0 basis set library

----- AuxC basis set information -----
Your calculation utilizes the auxiliary basis: aug-cc-pVTZ/C 
  H-He, B-F, Al-Ar, Ga-Kr : Obtained from the EMSL Basis Set Exchange (bse.pnl.gov) Feb. 2017
                            F. Weigend, A. Kohn, C. Hattig, J. Chem. Phys. 116, 3175 (2002)
                   Be, Mg : Obtained from the TURBOMOLE 7.0 basis set library
                            C. Haettig, Phys. Chem. Chem. Phys. 7, 59 (2005)
                       Ne : Obtained from the EMSL Basis Set Exchange (bse.pnl.gov) Feb. 2017
                            C. Haettig, Phys. Chem. Chem. Phys. 7, 59 (2005)
                            F. Weigend, A. Kohn, C. Hattig, J. Chem. Phys. 116, 3175 (2002)
                    Sc-Zn : Obtained from the EMSL Basis Set Exchange (bse.pnl.gov) Feb. 2017
                            J. G. Hill, J. A. Platts, J. Chem. Phys. 128, 044104 (2008)

The basis set includes element-specific modifications.

Your calculation utilizes the auxiliary basis: cc-pVTZ/C 
  Obtained from the EMSL Basis Set Exchange (bse.pnl.gov) Feb. 2017
  H-He, B-F, Al-Ar, Ga-Kr : F. Weigend, A. Kohn, C. Hattig, J. Chem. Phys. 116, 3175 (2002)
             Li-Be, Na-Mg : C. Haettig, Phys. Chem. Chem. Phys. 7, 59 (2005)
                       Ne : C. Haettig, Phys. Chem. Chem. Phys. 7, 59 (2005)
                            F. Weigend, A. Kohn, C. Hattig, J. Chem. Phys. 116, 3175 (2002)
                    Sc-Zn : J. G. Hill, J. A. Platts, J. Chem. Phys. 128, 044104 (2008)

================================================================================
                                        WARNINGS
                       Please study these warnings very carefully!
================================================================================

INFO   : Checking CIS options ...

INFO   : the flag for use of the SHARK integral package has been found!

================================================================================
                                       INPUT FILE
================================================================================
NAME = b3lyp-train-18.inp
|  1> ! b3lyp aug-cc-PVTZ RIJCOSX Opt
|  2> %maxcore 4000
|  3> %basis
|  4>  AuxJ "aug-cc-PVTZ/JK"
|  5>  AuxC "aug-cc-PVTZ/C"
|  6>  newGTO H "cc-PVTZ" end
|  7>  newAuxJGTO H "cc-PVTZ/JK" end
|  8>  newAuxCGTO H "cc-PVTZ/C" end
|  9> end
| 10> %cpcm
| 11>  SMD true
| 12>  SMDsolvent "ethanol"
| 13> end
| 14> %pal nprocs 4 end
| 15> * xyz 0 1
| 16> C         -4.68160        0.30280       -1.06730
| 17> C         -4.55820        0.00650        0.28040
| 18> C         -3.30890       -0.15020        0.84950
| 19> C         -2.15940       -0.01140        0.07290
| 20> C         -0.82380       -0.16900        0.63620
| 21> C         -0.50840       -0.46110        1.94080
| 22> S          1.18340       -0.55520        2.16840
| 23> C          1.37840       -0.18700        0.45350
| 24> C          2.68340       -0.08810       -0.15860
| 25> C          2.79850        0.20500       -1.51980
| 26> C          4.06540        0.29120       -2.06860
| 27> N          5.17790        0.11120       -1.37550
| 28> C          5.06900       -0.16630       -0.08730
| 29> C          3.85700       -0.27780        0.57150
| 30> N          0.26230       -0.02340       -0.16410
| 31> C         -2.29340        0.28700       -1.28310
| 32> C         -3.54470        0.44250       -1.84640
| 33> H         -5.66040        0.42420       -1.50710
| 34> H         -5.44200       -0.10330        0.89190
| 35> H         -3.22970       -0.38090        1.90090
| 36> H         -1.16210       -0.62500        2.77260
| 37> H          1.91090        0.35700       -2.11140
| 38> H          4.20260        0.51600       -3.11820
| 39> H          6.00300       -0.30580        0.44110
| 40> H          3.81790       -0.50630        1.62610
| 41> H         -1.40130        0.39350       -1.88020
| 42> H         -3.63550        0.67350       -2.89770
| 43> *
| 44> 
| 45> 
| 46> $new_job
| 47> ! b3lyp aug-cc-PVTZ RIJCOSX SP
| 48> %maxcore 4000
| 49> %basis
| 50>  AuxJ "aug-cc-PVTZ/JK"
| 51>  AuxC "aug-cc-PVTZ/C"
| 52>  newGTO H "cc-PVTZ" end
| 53>  newAuxJGTO H "cc-PVTZ/JK" end
| 54>  newAuxCGTO H "cc-PVTZ/C" end
| 55> end
| 56> %cpcm
| 57>  SMD true
| 58>  SMDsolvent "ethanol"
| 59> end
| 60> %pal nprocs 4 end
| 61> %tddft
| 62>  nroots 10
| 63>  maxdim 7
| 64> end
| 65> * xyzfile 0 1
| 66> 
| 67>                          ****END OF INPUT****
================================================================================


                 $$$$$$$$$$$$$$$$$$$$$$$$$$$$$$$$$$$$$$$$$$$$$$ 
                 $ THERE ARE  2 JOBS TO BE PROCESSED THIS RUN $
                 $$$$$$$$$$$$$$$$$$$$$$$$$$$$$$$$$$$$$$$$$$$$$$ 




                 $$$$$$$$$$$$$$$$  JOB NUMBER  1 $$$$$$$$$$$$$$


                       *****************************
                       * Geometry Optimization Run *
                       *****************************

Geometry optimization settings:
Update method            Update   .... BFGS
Choice of coordinates    CoordSys .... Z-matrix Internals
Initial Hessian          InHess   .... Almoef's Model

Convergence Tolerances:
Energy Change            TolE     ....  5.0000e-06 Eh
Max. Gradient            TolMAXG  ....  3.0000e-04 Eh/bohr
RMS Gradient             TolRMSG  ....  1.0000e-04 Eh/bohr
Max. Displacement        TolMAXD  ....  4.0000e-03 bohr
RMS Displacement         TolRMSD  ....  2.0000e-03 bohr
Strict Convergence                ....  False
------------------------------------------------------------------------------
                        ORCA OPTIMIZATION COORDINATE SETUP
------------------------------------------------------------------------------

The optimization will be done in new redundant internal coordinates
Making redundant internal coordinates   ...  (new redundants) done
Evaluating the initial hessian          ...  (Almloef) done
Evaluating the coordinates              ...  done
Calculating the B-matrix                .... done
Calculating the G-matrix                .... done
Diagonalizing the G-matrix              .... done
Small eigenvalue found = 4.208e-03
Small eigenvalue found = 2.491e-02
Small eigenvalue found = 2.852e-02
The first mode is                       ....   63
The number of degrees of freedom        ....   75

    -----------------------------------------------------------------
                    Redundant Internal Coordinates


    -----------------------------------------------------------------
         Definition                    Initial Value    Approx d2E/dq
    -----------------------------------------------------------------
      1. B(C   1,C   0)                  1.3854         0.635458   
      2. B(C   2,C   1)                  1.3817         0.644068   
      3. B(C   3,C   2)                  1.3942         0.615287   
      4. B(C   4,C   3)                  1.4581         0.486559   
      5. B(C   5,C   4)                  1.3736         0.663593   
      6. B(S   6,C   5)                  1.7096         0.520658   
      7. B(C   7,S   6)                  1.7648         0.425163   
      8. B(C   8,C   7)                  1.4448         0.510851   
      9. B(C   9,C   8)                  1.3971         0.608605   
     10. B(C  10,C   9)                  1.3833         0.640256   
     11. B(N  11,C  10)                  1.3230         0.715650   
     12. B(C  12,N  11)                  1.3222         0.717759   
     13. B(C  13,C  12)                  1.3840         0.638774   
     14. B(C  13,C   8)                  1.3951         0.613147   
     15. B(N  14,C   4)                  1.3569         0.631854   
     16. B(N  14,C   7)                  1.2860         0.819884   
     17. B(C  15,C   3)                  1.3949         0.613659   
     18. B(C  16,C  15)                  1.3810         0.645732   
     19. B(C  16,C   0)                  1.3853         0.635679   
     20. B(H  17,C   0)                  1.0799         0.373695   
     21. B(H  18,C   1)                  1.0803         0.373136   
     22. B(H  19,C   2)                  1.0793         0.374506   
     23. B(H  20,C   5)                  1.0706         0.386771   
     24. B(H  21,C   9)                  1.0775         0.377072   
     25. B(H  22,C  10)                  1.0821         0.370654   
     26. B(H  23,C  12)                  1.0821         0.370652   
     27. B(H  24,C  13)                  1.0798         0.373878   
     28. B(H  25,C  15)                  1.0788         0.375287   
     29. B(H  26,C  16)                  1.0802         0.373297   
     30. A(C   1,C   0,C  16)          119.7074         0.437962   
     31. A(C  16,C   0,H  17)          120.2297         0.356640   
     32. A(C   1,C   0,H  17)          120.0629         0.356619   
     33. A(C   0,C   1,C   2)          120.3618         0.438999   
     34. A(C   0,C   1,H  18)          119.9672         0.356529   
     35. A(C   2,C   1,H  18)          119.6710         0.357345   
     36. A(C   3,C   2,H  19)          120.2252         0.354803   
     37. A(C   1,C   2,H  19)          119.4594         0.357567   
     38. A(C   1,C   2,C   3)          120.3154         0.436453   
     39. A(C   4,C   3,C  15)          119.1224         0.414888   
     40. A(C   2,C   3,C   4)          121.9573         0.415083   
     41. A(C   2,C   3,C  15)          118.9202         0.432670   
     42. A(C   5,C   4,N  14)          113.5274         0.438023   
     43. A(C   3,C   4,C   5)          126.8870         0.420709   
     44. A(C   3,C   4,N  14)          119.5856         0.414351   
     45. A(C   4,C   5,S   6)          111.4301         0.449481   
     46. A(S   6,C   5,H  20)          119.4975         0.364917   
     47. A(C   4,C   5,H  20)          129.0724         0.361368   
     48. A(C   5,S   6,C   7)           88.1945         0.437809   
     49. A(S   6,C   7,C   8)          121.7196         0.413528   
     50. A(C   8,C   7,N  14)          124.8704         0.437938   
     51. A(S   6,C   7,N  14)          113.4100         0.447234   
     52. A(C   9,C   8,C  13)          117.9747         0.431757   
     53. A(C   7,C   8,C  13)          121.9243         0.418439   
     54. A(C   7,C   8,C   9)          120.1009         0.417885   
     55. A(C   8,C   9,C  10)          118.3614         0.435130   
     56. A(C  10,C   9,H  21)          121.8587         0.357622   
     57. A(C   8,C   9,H  21)          119.7799         0.354557   
     58. A(C   9,C  10,N  11)          123.6265         0.445104   
     59. A(N  11,C  10,H  22)          115.4529         0.361150   
     60. A(C   9,C  10,H  22)          120.9206         0.356580   
     61. A(C  10,N  11,C  12)          118.0135         0.451427   
     62. A(N  11,C  12,C  13)          123.5592         0.445154   
     63. A(C  13,C  12,H  23)          120.8660         0.356439   
     64. A(N  11,C  12,H  23)          115.5749         0.361331   
     65. A(C   8,C  13,C  12)          118.4647         0.435531   
     66. A(C  12,C  13,H  24)          120.9092         0.356965   
     67. A(C   8,C  13,H  24)          120.6261         0.354493   
     68. A(C   4,N  14,C   7)          113.4379         0.452125   
     69. A(C   3,C  15,C  16)          120.5067         0.436447   
     70. A(C  16,C  15,H  25)          120.8242         0.357851   
     71. A(C   3,C  15,H  25)          118.6691         0.354769   
     72. A(C   0,C  16,C  15)          120.1884         0.439231   
     73. A(C  15,C  16,H  26)          119.8157         0.357528   
     74. A(C   0,C  16,H  26)          119.9958         0.356576   
     75. D(C   2,C   1,C   0,H  17)    179.9970         0.028029   
     76. D(H  18,C   1,C   0,C  16)    179.9958         0.028029   
     77. D(H  18,C   1,C   0,H  17)      0.0059         0.028029   
     78. D(C   2,C   1,C   0,C  16)     -0.0131         0.028029   
     79. D(H  19,C   2,C   1,C   0)    179.9996         0.028846   
     80. D(C   3,C   2,C   1,H  18)   -179.9969         0.028846   
     81. D(H  19,C   2,C   1,H  18)     -0.0092         0.028846   
     82. D(C   3,C   2,C   1,C   0)      0.0120         0.028846   
     83. D(C  15,C   3,C   2,H  19)   -179.9986         0.026173   
     84. D(C  15,C   3,C   2,C   1)     -0.0110         0.026173   
     85. D(C   4,C   3,C   2,C   1)    179.9952         0.026173   
     86. D(C   4,C   3,C   2,H  19)      0.0076         0.026173   
     87. D(N  14,C   4,C   3,C   2)    179.9991         0.016119   
     88. D(C   5,C   4,C   3,C   2)     -0.0006         0.016119   
     89. D(C   5,C   4,C   3,C  15)   -179.9944         0.016119   
     90. D(N  14,C   4,C   3,C  15)      0.0053         0.016119   
     91. D(H  20,C   5,C   4,N  14)   -179.9935         0.030752   
     92. D(H  20,C   5,C   4,C   3)      0.0063         0.030752   
     93. D(S   6,C   5,C   4,N  14)     -0.0062         0.030752   
     94. D(S   6,C   5,C   4,C   3)    179.9935         0.030752   
     95. D(C   7,S   6,C   5,H  20)    179.9981         0.005534   
     96. D(C   7,S   6,C   5,C   4)      0.0095         0.005534   
     97. D(N  14,C   7,S   6,C   5)     -0.0115         0.004140   
     98. D(C   8,C   7,S   6,C   5)    179.9995         0.004140   
     99. D(C  13,C   8,C   7,N  14)   -179.9942         0.017786   
    100. D(C  13,C   8,C   7,S   6)     -0.0065         0.017786   
    101. D(C   9,C   8,C   7,N  14)      0.0029         0.017786   
    102. D(C   9,C   8,C   7,S   6)    179.9906         0.017786   
    103. D(H  21,C   9,C   8,C   7)     -0.0000         0.025575   
    104. D(C  10,C   9,C   8,C  13)     -0.0060         0.025575   
    105. D(C  10,C   9,C   8,C   7)    179.9968         0.025575   
    106. D(H  21,C   9,C   8,C  13)    179.9972         0.025575   
    107. D(H  22,C  10,C   9,H  21)      0.0006         0.028483   
    108. D(H  22,C  10,C   9,C   8)   -179.9961         0.028483   
    109. D(N  11,C  10,C   9,H  21)   -179.9991         0.028483   
    110. D(N  11,C  10,C   9,C   8)      0.0042         0.028483   
    111. D(C  12,N  11,C  10,H  22)   -179.9982         0.038520   
    112. D(C  12,N  11,C  10,C   9)      0.0015         0.038520   
    113. D(H  23,C  12,N  11,C  10)    179.9987         0.038770   
    114. D(C  13,C  12,N  11,C  10)     -0.0053         0.038770   
    115. D(H  24,C  13,C  12,H  23)     -0.0045         0.028342   
    116. D(C   8,C  13,C  12,H  23)    179.9990         0.028342   
    117. D(C   8,C  13,C  12,N  11)      0.0032         0.028342   
    118. D(H  24,C  13,C   8,C   9)   -179.9939         0.025980   
    119. D(H  24,C  13,C   8,C   7)      0.0033         0.025980   
    120. D(H  24,C  13,C  12,N  11)    179.9997         0.028342   
    121. D(C  12,C  13,C   8,C   9)      0.0026         0.025980   
    122. D(C  12,C  13,C   8,C   7)    179.9998         0.025980   
    123. D(C   4,N  14,C   7,C   8)    179.9988         0.052117   
    124. D(C   4,N  14,C   7,S   6)      0.0103         0.052117   
    125. D(C   7,N  14,C   4,C   5)     -0.0027         0.029374   
    126. D(C   7,N  14,C   4,C   3)    179.9975         0.029374   
    127. D(H  25,C  15,C   3,C   4)     -0.0060         0.026026   
    128. D(H  25,C  15,C   3,C   2)   -179.9999         0.026026   
    129. D(C  16,C  15,C   3,C   4)   -179.9946         0.026026   
    130. D(C  16,C  15,C   3,C   2)      0.0115         0.026026   
    131. D(C   0,C  16,C  15,H  25)    179.9988         0.029006   
    132. D(C   0,C  16,C  15,C   3)     -0.0128         0.029006   
    133. D(H  26,C  16,C   0,H  17)     -0.0097         0.028050   
    134. D(H  26,C  16,C   0,C   1)   -179.9995         0.028050   
    135. D(C  15,C  16,C   0,H  17)   -179.9966         0.028050   
    136. D(H  26,C  16,C  15,C   3)   -179.9998         0.029006   
    137. D(C  15,C  16,C   0,C   1)      0.0135         0.028050   
    138. D(H  26,C  16,C  15,H  25)      0.0118         0.029006   
    -----------------------------------------------------------------

Number of atoms                         .... 27
Number of degrees of freedom            .... 138

         *************************************************************
         *                GEOMETRY OPTIMIZATION CYCLE   1            *
         *************************************************************
---------------------------------
CARTESIAN COORDINATES (ANGSTROEM)
---------------------------------
  C     -4.681600    0.302800   -1.067300
  C     -4.558200    0.006500    0.280400
  C     -3.308900   -0.150200    0.849500
  C     -2.159400   -0.011400    0.072900
  C     -0.823800   -0.169000    0.636200
  C     -0.508400   -0.461100    1.940800
  S      1.183400   -0.555200    2.168400
  C      1.378400   -0.187000    0.453500
  C      2.683400   -0.088100   -0.158600
  C      2.798500    0.205000   -1.519800
  C      4.065400    0.291200   -2.068600
  N      5.177900    0.111200   -1.375500
  C      5.069000   -0.166300   -0.087300
  C      3.857000   -0.277800    0.571500
  N      0.262300   -0.023400   -0.164100
  C     -2.293400    0.287000   -1.283100
  C     -3.544700    0.442500   -1.846400
  H     -5.660400    0.424200   -1.507100
  H     -5.442000   -0.103300    0.891900
  H     -3.229700   -0.380900    1.900900
  H     -1.162100   -0.625000    2.772600
  H      1.910900    0.357000   -2.111400
  H      4.202600    0.516000   -3.118200
  H      6.003000   -0.305800    0.441100
  H      3.817900   -0.506300    1.626100
  H     -1.401300    0.393500   -1.880200
  H     -3.635500    0.673500   -2.897700

----------------------------
CARTESIAN COORDINATES (A.U.)
----------------------------
  NO LB      ZA    FRAG     MASS         X           Y           Z
   0 C     6.0000    0    12.011   -8.846942    0.572209   -2.016905
   1 C     6.0000    0    12.011   -8.613750    0.012283    0.529879
   2 C     6.0000    0    12.011   -6.252915   -0.283837    1.605322
   3 C     6.0000    0    12.011   -4.080675   -0.021543    0.137761
   4 C     6.0000    0    12.011   -1.556756   -0.319364    1.202244
   5 C     6.0000    0    12.011   -0.960737   -0.871353    3.667580
   6 S    16.0000    0    32.060    2.236302   -1.049176    4.097682
   7 C     6.0000    0    12.011    2.604799   -0.353379    0.856991
   8 C     6.0000    0    12.011    5.070891   -0.166485   -0.299711
   9 C     6.0000    0    12.011    5.288399    0.387394   -2.872006
  10 C     6.0000    0    12.011    7.682493    0.550288   -3.909087
  11 N     7.0000    0    14.007    9.784813    0.210138   -2.599318
  12 C     6.0000    0    12.011    9.579022   -0.314261   -0.164973
  13 C     6.0000    0    12.011    7.288674   -0.524966    1.079978
  14 N     7.0000    0    14.007    0.495675   -0.044220   -0.310104
  15 C     6.0000    0    12.011   -4.333898    0.542351   -2.424708
  16 C     6.0000    0    12.011   -6.698512    0.836204   -3.489190
  17 H     1.0000    0     1.008  -10.696606    0.801622   -2.848006
  18 H     1.0000    0     1.008  -10.283890   -0.195209    1.685447
  19 H     1.0000    0     1.008   -6.103248   -0.719797    3.592180
  20 H     1.0000    0     1.008   -2.196051   -1.181079    5.239455
  21 H     1.0000    0     1.008    3.611078    0.674632   -3.989968
  22 H     1.0000    0     1.008    7.941763    0.975099   -5.892544
  23 H     1.0000    0     1.008   11.344026   -0.577878    0.833558
  24 H     1.0000    0     1.008    7.214785   -0.956768    3.072884
  25 H     1.0000    0     1.008   -2.648073    0.743607   -3.553063
  26 H     1.0000    0     1.008   -6.870099    1.272731   -5.475859

--------------------------------
INTERNAL COORDINATES (ANGSTROEM)
--------------------------------
 C      0   0   0     0.000000000000     0.00000000     0.00000000
 C      1   0   0     1.385394001719     0.00000000     0.00000000
 C      2   1   0     1.381730867427   120.36179973     0.00000000
 C      3   2   1     1.394174755904   120.31544401     0.00000000
 C      4   3   2     1.458071332274   121.95731359   179.99518805
 C      5   4   3     1.373601372306   126.88703238     0.00000000
 S      6   5   4     1.709632653525   111.43007385   179.99348189
 C      7   6   5     1.764788443412    88.19454327     0.00000000
 C      8   7   6     1.444808852409   121.71960256   179.99950853
 C      9   8   7     1.397147472531   120.10093506   179.99060322
 C     10   9   8     1.383346482267   118.36140249   179.99676490
 N     11  10   9     1.323043408207   123.62648524     0.00000000
 C     12  11  10     1.322242300034   118.01350855     0.00000000
 C     13  12  11     1.383977488979   123.55916244     0.00000000
 N      8   7   6     1.286030299021   113.41003410     0.00000000
 C      4   3   2     1.394895895757   118.92024181     0.00000000
 C     16   4   3     1.381028178568   120.50666584     0.00000000
 H      1   2   3     1.079912700175   120.06285426   179.99703172
 H      2   1   3     1.080319735078   119.96716722   180.00886002
 H      3   2   1     1.079322514358   119.45936976   179.99962003
 H      6   5   4     1.070550391154   129.07237794     0.00000000
 H     10   9   8     1.077463836980   119.77990277     0.00000000
 H     11  10   9     1.082136331522   120.92058035   180.00387381
 H     13  12  11     1.082138073445   115.57487920   179.99870370
 H     14  13  12     1.079778782900   120.90923904   179.99971271
 H     16   4   3     1.078755333706   118.66913276   180.00007994
 H     17  16   4     1.080202448618   119.81571511   180.00016259

---------------------------
INTERNAL COORDINATES (A.U.)
---------------------------
 C      0   0   0     0.000000000000     0.00000000     0.00000000
 C      1   0   0     2.618015250827     0.00000000     0.00000000
 C      2   1   0     2.611092930222   120.36179973     0.00000000
 C      3   2   1     2.634608471485   120.31544401     0.00000000
 C      4   3   2     2.755355501720   121.95731359   179.99518805
 C      5   4   3     2.595730410836   126.88703238     0.00000000
 S      6   5   4     3.230737504772   111.43007385   179.99348189
 C      7   6   5     3.334966842358    88.19454327     0.00000000
 C      8   7   6     2.730293046918   121.71960256   179.99950853
 C      9   8   7     2.640226091784   120.10093506   179.99060322
 C     10   9   8     2.614145999808   118.36140249   179.99676490
 N     11  10   9     2.500189704801   123.62648524     0.00000000
 C     12  11  10     2.498675829751   118.01350855     0.00000000
 C     13  12  11     2.615338429682   123.55916244     0.00000000
 N      8   7   6     2.430245065075   113.41003410     0.00000000
 C      4   3   2     2.635971228312   118.92024181     0.00000000
 C     16   4   3     2.609765040722   120.50666584     0.00000000
 H      1   2   3     2.040739251875   120.06285426   179.99703172
 H      2   1   3     2.041508436369   119.96716722   180.00886002
 H      3   2   1     2.039623962312   119.45936976   179.99962003
 H      6   5   4     2.023047051843   129.07237794     0.00000000
 H     10   9   8     2.036111571096   119.77990277     0.00000000
 H     11  10   9     2.044941306143   120.92058035   180.00387381
 H     13  12  11     2.044944597901   115.57487920   179.99870370
 H     14  13  12     2.040486184899   120.90923904   179.99971271
 H     16   4   3     2.038552146212   118.66913276   180.00007994
 H     17  16   4     2.041286797079   119.81571511   180.00016259

---------------------
BASIS SET INFORMATION
---------------------
There are 4 groups of distinct atoms

 Group   1 Type C   : 19s6p3d2f contracted to 5s4p3d2f pattern {88111/3111/111/11}
 Group   2 Type S   : 42s17p3d2f contracted to 6s5p3d2f pattern {131313111/77111/111/11}
 Group   3 Type N   : 19s6p3d2f contracted to 5s4p3d2f pattern {88111/3111/111/11}
 Group   4 Type H   : 5s2p1d contracted to 3s2p1d pattern {311/11/1}

Atom   0C    basis set group =>   1
Atom   1C    basis set group =>   1
Atom   2C    basis set group =>   1
Atom   3C    basis set group =>   1
Atom   4C    basis set group =>   1
Atom   5C    basis set group =>   1
Atom   6S    basis set group =>   2
Atom   7C    basis set group =>   1
Atom   8C    basis set group =>   1
Atom   9C    basis set group =>   1
Atom  10C    basis set group =>   1
Atom  11N    basis set group =>   3
Atom  12C    basis set group =>   1
Atom  13C    basis set group =>   1
Atom  14N    basis set group =>   3
Atom  15C    basis set group =>   1
Atom  16C    basis set group =>   1
Atom  17H    basis set group =>   4
Atom  18H    basis set group =>   4
Atom  19H    basis set group =>   4
Atom  20H    basis set group =>   4
Atom  21H    basis set group =>   4
Atom  22H    basis set group =>   4
Atom  23H    basis set group =>   4
Atom  24H    basis set group =>   4
Atom  25H    basis set group =>   4
Atom  26H    basis set group =>   4
---------------------------------
AUXILIARY/J BASIS SET INFORMATION
---------------------------------
There are 4 groups of distinct atoms

 Group   1 Type C   : 10s7p5d2f1g contracted to 10s7p5d2f1g pattern {1111111111/1111111/11111/11/1}
 Group   2 Type S   : 13s11p9d3f1g contracted to 13s11p9d3f1g pattern {1111111111111/11111111111/111111111/111/1}
 Group   3 Type N   : 10s7p5d2f1g contracted to 10s7p5d2f1g pattern {1111111111/1111111/11111/11/1}
 Group   4 Type H   : 4s3p2d1f contracted to 4s3p2d1f pattern {1111/111/11/1}

Atom   0C    basis set group =>   1
Atom   1C    basis set group =>   1
Atom   2C    basis set group =>   1
Atom   3C    basis set group =>   1
Atom   4C    basis set group =>   1
Atom   5C    basis set group =>   1
Atom   6S    basis set group =>   2
Atom   7C    basis set group =>   1
Atom   8C    basis set group =>   1
Atom   9C    basis set group =>   1
Atom  10C    basis set group =>   1
Atom  11N    basis set group =>   3
Atom  12C    basis set group =>   1
Atom  13C    basis set group =>   1
Atom  14N    basis set group =>   3
Atom  15C    basis set group =>   1
Atom  16C    basis set group =>   1
Atom  17H    basis set group =>   4
Atom  18H    basis set group =>   4
Atom  19H    basis set group =>   4
Atom  20H    basis set group =>   4
Atom  21H    basis set group =>   4
Atom  22H    basis set group =>   4
Atom  23H    basis set group =>   4
Atom  24H    basis set group =>   4
Atom  25H    basis set group =>   4
Atom  26H    basis set group =>   4
---------------------------------
AUXILIARY/C BASIS SET INFORMATION
---------------------------------
There are 4 groups of distinct atoms

 Group   1 Type C   : 9s7p6d4f2g contracted to 9s7p6d4f2g pattern {111111111/1111111/111111/1111/11}
 Group   2 Type S   : 11s9p8d6f3g contracted to 11s9p8d6f3g pattern {11111111111/111111111/11111111/111111/111}
 Group   3 Type N   : 9s7p6d4f2g contracted to 9s7p6d4f2g pattern {111111111/1111111/111111/1111/11}
 Group   4 Type H   : 4s3p2d1f contracted to 4s3p2d1f pattern {1111/111/11/1}

Atom   0C    basis set group =>   1
Atom   1C    basis set group =>   1
Atom   2C    basis set group =>   1
Atom   3C    basis set group =>   1
Atom   4C    basis set group =>   1
Atom   5C    basis set group =>   1
Atom   6S    basis set group =>   2
Atom   7C    basis set group =>   1
Atom   8C    basis set group =>   1
Atom   9C    basis set group =>   1
Atom  10C    basis set group =>   1
Atom  11N    basis set group =>   3
Atom  12C    basis set group =>   1
Atom  13C    basis set group =>   1
Atom  14N    basis set group =>   3
Atom  15C    basis set group =>   1
Atom  16C    basis set group =>   1
Atom  17H    basis set group =>   4
Atom  18H    basis set group =>   4
Atom  19H    basis set group =>   4
Atom  20H    basis set group =>   4
Atom  21H    basis set group =>   4
Atom  22H    basis set group =>   4
Atom  23H    basis set group =>   4
Atom  24H    basis set group =>   4
Atom  25H    basis set group =>   4
Atom  26H    basis set group =>   4


           ************************************************************
           *        Program running with 4 parallel MPI-processes     *
           *              working on a common directory               *
           ************************************************************
------------------------------------------------------------------------------
                           ORCA GTO INTEGRAL CALCULATION
                           -- RI-GTO INTEGRALS CHOSEN --
------------------------------------------------------------------------------
------------------------------------------------------------------------------
                   ___                                                        
                  /   \      - P O W E R E D   B Y -                         
                 /     \                                                     
                 |  |  |   _    _      __       _____    __    __             
                 |  |  |  | |  | |    /  \     |  _  \  |  |  /  |          
                  \  \/   | |  | |   /    \    | | | |  |  | /  /          
                 / \  \   | |__| |  /  /\  \   | |_| |  |  |/  /          
                |  |  |   |  __  | /  /__\  \  |    /   |      \           
                |  |  |   | |  | | |   __   |  |    \   |  |\   \          
                \     /   | |  | | |  |  |  |  | |\  \  |  | \   \       
                 \___/    |_|  |_| |__|  |__|  |_| \__\ |__|  \__/        
                                                                              
                      - O R C A' S   B I G   F R I E N D -                    
                                      &                                       
                       - I N T E G R A L  F E E D E R -                       
                                                                              
 v1 FN, 2020, v2 2021                                                         
------------------------------------------------------------------------------


Reading SHARK input file b3lyp-train-18.SHARKINP.tmp ... ok
----------------------
SHARK INTEGRAL PACKAGE
----------------------

Number of atoms                             ...     27
Number of basis functions                   ...   1047
Number of shells                            ...    411
Maximum angular momentum                    ...      3
Integral batch strategy                     ... SHARK/LIBINT Hybrid
RI-J (if used) integral strategy            ... SPLIT-RIJ (Revised 2003 algorithm where possible)
Printlevel                                  ...      1
Contraction scheme used                     ... PARTIAL GENERAL contraction
Coulomb Range Separation                    ... NOT USED
Exchange Range Separation                   ... NOT USED
Finite Nucleus Model                        ... NOT USED
Auxiliary Coulomb fitting basis             ... AVAILABLE
   # of basis functions in Aux-J            ...   1685
   # of shells in Aux-J                     ...    537
   Maximum angular momentum in Aux-J        ...      4
Auxiliary J/K fitting basis                 ... NOT available
Auxiliary Correlation fitting basis         ... AVAILABLE
   # of basis functions in Aux-C            ...   2143
   # of shells in Aux-C                     ...    585
   Maximum angular momentum in Aux-C        ...      4
Auxiliary 'external' fitting basis          ... NOT available
Integral threshold                          ...     2.500000e-11
Primitive cut-off                           ...     2.500000e-12
Primitive pair pre-selection threshold      ...     2.500000e-12

Calculating pre-screening integrals         ... done (  0.2 sec) Dimension = 411
Calculating pre-screening integrals (ORCA)  ... done (  0.5 sec) Dimension = 300
Organizing shell pair data                  ... done (  0.7 sec)
Shell pair information
Total number of shell pairs                 ...     84666
Shell pairs after pre-screening             ...     55752
Total number of primitive shell pairs       ...    107494
Primitive shell pairs kept                  ...     64721
          la=0 lb=0:  12544 shell pairs
          la=1 lb=0:  14355 shell pairs
          la=1 lb=1:   3580 shell pairs
          la=2 lb=0:   9299 shell pairs
          la=2 lb=1:   4585 shell pairs
          la=2 lb=2:   1520 shell pairs
          la=3 lb=0:   5135 shell pairs
          la=3 lb=1:   2565 shell pairs
          la=3 lb=2:   1684 shell pairs
          la=3 lb=3:    485 shell pairs

Calculating one electron integrals          ... done (  0.2 sec)
Calculating RI/J V-Matrix + Cholesky decomp.... done (  1.1 sec)
Calculating RI/C V-Matrix + Cholesky decomp.... done (  0.9 sec)
Calculating Nuclear repulsion               ... done (  0.0 sec) ENN=   1151.906837398700 Eh

SHARK setup successfully completed in   7.4 seconds

Maximum memory used throughout the entire GTOINT-calculation: 91.4 MB


           ************************************************************
           *        Program running with 4 parallel MPI-processes     *
           *              working on a common directory               *
           ************************************************************
-------------------------------------------------------------------------------
                                 ORCA SCF
-------------------------------------------------------------------------------

------------
SCF SETTINGS
------------
Hamiltonian:
 Density Functional     Method          .... DFT(GTOs)
 Exchange Functional    Exchange        .... B88
   X-Alpha parameter    XAlpha          ....  0.666667
   Becke's b parameter  XBeta           ....  0.004200
 Correlation Functional Correlation     .... LYP
 LDA part of GGA corr.  LDAOpt          .... VWN-5
 Gradients option       PostSCFGGA      .... off
 Hybrid DFT is turned on
   Fraction HF Exchange ScalHFX         ....  0.200000
   Scaling of DF-GGA-X  ScalDFX         ....  0.720000
   Scaling of DF-GGA-C  ScalDFC         ....  0.810000
   Scaling of DF-LDA-C  ScalLDAC        ....  1.000000
   Perturbative correction              ....  0.000000
   Density functional embedding theory  .... OFF
   NL short-range parameter             ....  4.800000
 RI-approximation to the Coulomb term is turned on
   Number of AuxJ basis functions       .... 1685
   RIJ-COSX (HFX calculated with COS-X)).... on


General Settings:
 Integral files         IntName         .... b3lyp-train-18
 Hartree-Fock type      HFTyp           .... RHF
 Total Charge           Charge          ....    0
 Multiplicity           Mult            ....    1
 Number of Electrons    NEL             ....  124
 Basis Dimension        Dim             ....  926
 Nuclear Repulsion      ENuc            ....   1151.9068373987 Eh

Convergence Acceleration:
 DIIS                   CNVDIIS         .... on
   Start iteration      DIISMaxIt       ....    12
   Startup error        DIISStart       ....  0.200000
   # of expansion vecs  DIISMaxEq       ....     5
   Bias factor          DIISBfac        ....   1.050
   Max. coefficient     DIISMaxC        ....  10.000
 Trust-Rad. Augm. Hess. CNVTRAH         .... auto
   Auto Start mean grad. ratio tolernc. ....  1.125000
   Auto Start start iteration           ....    20
   Auto Start num. interpolation iter.  ....    10
   Max. Number of Micro iterations      ....    16
   Max. Number of Macro iterations      .... Maxiter - #DIIS iter
   Number of Davidson start vectors     ....     2
   Converg. threshold I  (grad. norm)   ....   1.000e-05
   Converg. threshold II (energy diff.) ....   1.000e-08
   Grad. Scal. Fac. for Micro threshold ....   0.100
   Minimum threshold for Micro iter.    ....   0.010
   NR start threshold (gradient norm)   ....   0.001
   Initial trust radius                 ....   0.400
   Minimum AH scaling param. (alpha)    ....   1.000
   Maximum AH scaling param. (alpha)    .... 1000.000
   Orbital update algorithm             .... Taylor
   White noise on init. David. guess    .... on
   Maximum white noise                  ....   0.010
   Quad. conv. algorithm                .... NR
 SOSCF                  CNVSOSCF        .... on
   Start iteration      SOSCFMaxIt      ....   150
   Startup grad/error   SOSCFStart      ....  0.003300
 Level Shifting         CNVShift        .... on
   Level shift para.    LevelShift      ....    0.2500
   Turn off err/grad.   ShiftErr        ....    0.0010
 Zerner damping         CNVZerner       .... off
 Static damping         CNVDamp         .... on
   Fraction old density DampFac         ....    0.7000
   Max. Damping (<1)    DampMax         ....    0.9800
   Min. Damping (>=0)   DampMin         ....    0.0000
   Turn off err/grad.   DampErr         ....    0.1000
 Fernandez-Rico         CNVRico         .... off

SCF Procedure:
 Maximum # iterations   MaxIter         ....   125
 SCF integral mode      SCFMode         .... Direct
   Integral package                     .... SHARK and LIBINT hybrid scheme
 Reset frequency        DirectResetFreq ....    20
 Integral Threshold     Thresh          ....  2.500e-11 Eh
 Primitive CutOff       TCut            ....  2.500e-12 Eh

Convergence Tolerance:
 Convergence Check Mode ConvCheckMode   .... Total+1el-Energy
 Convergence forced     ConvForced      .... 0
 Energy Change          TolE            ....  1.000e-08 Eh
 1-El. energy change                    ....  1.000e-05 Eh
 Orbital Gradient       TolG            ....  1.000e-05
 Orbital Rotation angle TolX            ....  1.000e-05
 DIIS Error             TolErr          ....  5.000e-07


Diagonalization of the overlap matrix:
Smallest eigenvalue                        ... 9.352e-07
Time for diagonalization                   ...    0.343 sec
Threshold for overlap eigenvalues          ... 1.000e-08
Number of eigenvalues below threshold      ... 0
Time for construction of square roots      ...    0.243 sec
Total time needed                          ...    0.591 sec

Time for model grid setup =    0.560 sec

------------------------------
INITIAL GUESS: MODEL POTENTIAL
------------------------------
Loading Hartree-Fock densities                     ... done
Calculating cut-offs                               ... done
Initializing the effective Hamiltonian             ... done
Setting up the integral package (SHARK)            ... done
Starting the Coulomb interaction                   ... done (   1.7 sec)
Reading the grid                                   ... done
Mapping shells                                     ... done
Starting the XC term evaluation                    ... done (   1.5 sec)
  promolecular density results
     # of electrons  =    123.993612902
     EX              =   -113.205631518
     EC              =     -4.330188776
     EX+EC           =   -117.535820294
Transforming the Hamiltonian                       ... done (   0.2 sec)
Diagonalizing the Hamiltonian                      ... done (   0.4 sec)
Back transforming the eigenvectors                 ... done (   0.1 sec)
Now organizing SCF variables                       ... done
                      ------------------
                      INITIAL GUESS DONE (   4.4 sec)
                      ------------------
-------------------
DFT GRID GENERATION
-------------------

General Integration Accuracy     IntAcc      ... 4.388
Radial Grid Type                 RadialGrid  ... OptM3 with GC (2021)
Angular Grid (max. ang.)         AngularGrid ... 4 (Lebedev-302)
Angular grid pruning method      GridPruning ... 4 (adaptive)
Weight generation scheme         WeightScheme... Becke
Basis function cutoff            BFCut       ... 1.0000e-11
Integration weight cutoff        WCut        ... 1.0000e-14
Angular grids for H and He will be reduced by one unit
Partially contracted basis set               ... off
Rotationally invariant grid construction     ... off

Total number of grid points                  ...   139398
Total number of batches                      ...     2191
Average number of points per batch           ...       63
Average number of grid points per atom       ...     5163
Time for grid setup =    1.811 sec

--------------------
COSX GRID GENERATION
--------------------

GRIDX 1
-------
General Integration Accuracy     IntAcc      ... 3.816
Radial Grid Type                 RadialGrid  ... OptM3 with GC (2021)
Angular Grid (max. ang.)         AngularGrid ... 1 (Lebedev-50)
Angular grid pruning method      GridPruning ... 4 (adaptive)
Weight generation scheme         WeightScheme... Becke
Basis function cutoff            BFCut       ... 1.0000e-11
Integration weight cutoff        WCut        ... 1.0000e-14
Angular grids for H and He will be reduced by one unit
Partially contracted basis set               ... on
Rotationally invariant grid construction     ... off

Total number of grid points                  ...    17701
Total number of batches                      ...      294
Average number of points per batch           ...       60
Average number of grid points per atom       ...      656
UseSFitting                                  ... on

GRIDX 2
-------
General Integration Accuracy     IntAcc      ... 4.020
Radial Grid Type                 RadialGrid  ... OptM3 with GC (2021)
Angular Grid (max. ang.)         AngularGrid ... 2 (Lebedev-110)
Angular grid pruning method      GridPruning ... 4 (adaptive)
Weight generation scheme         WeightScheme... Becke
Basis function cutoff            BFCut       ... 1.0000e-11
Integration weight cutoff        WCut        ... 1.0000e-14
Angular grids for H and He will be reduced by one unit
Partially contracted basis set               ... on
Rotationally invariant grid construction     ... off

Total number of grid points                  ...    42522
Total number of batches                      ...      676
Average number of points per batch           ...       62
Average number of grid points per atom       ...     1575
UseSFitting                                  ... on

GRIDX 3
-------
General Integration Accuracy     IntAcc      ... 4.338
Radial Grid Type                 RadialGrid  ... OptM3 with GC (2021)
Angular Grid (max. ang.)         AngularGrid ... 3 (Lebedev-194)
Angular grid pruning method      GridPruning ... 4 (adaptive)
Weight generation scheme         WeightScheme... Becke
Basis function cutoff            BFCut       ... 1.0000e-11
Integration weight cutoff        WCut        ... 1.0000e-14
Angular grids for H and He will be reduced by one unit
Partially contracted basis set               ... on
Rotationally invariant grid construction     ... off

Total number of grid points                  ...    92404
Total number of batches                      ...     1459
Average number of points per batch           ...       63
Average number of grid points per atom       ...     3422
UseSFitting                                  ... on

Time for X-Grid setup             =    5.471 sec


--------------------
CPCM SOLVATION MODEL
--------------------
CPCM parameters:
  Epsilon                                         ...      24.8520
  Refrac                                          ...       1.3611
  Rsolv                                           ...       1.3000
  Surface type                                    ... GAUSSIAN VDW
  Epsilon function type                           ...         CPCM
Solvent:                                     ... ETHANOL
SMD-CDS solvent descriptors:
  Soln                                       ...    1.3611
  Soln25                                     ...    1.3593
  Sola                                       ...    0.3700
  Solb                                       ...    0.4800
  Solg                                       ...   31.6200
  Solc                                       ...    0.0000
  Solh                                       ...    0.0000
Radii:
 Radius for C  used is    3.4960 Bohr (=   1.8500 Ang.)
 Radius for S  used is    4.7054 Bohr (=   2.4900 Ang.)
 Radius for N  used is    3.5716 Bohr (=   1.8900 Ang.)
 Radius for H  used is    2.2677 Bohr (=   1.2000 Ang.)
Calculating surface                               ...        done! (  0.0s)
GEPOL surface points                              ...         1544
GEPOL Volume                                      ...    1722.1956
GEPOL Surface-area                                ...     932.7786
Calculating surface distance matrix               ...        done! (  0.0s)
Performing Cholesky decomposition & store         ...        done! (  0.3s)
Overall time for CPCM initialization              ...                 0.3s
 re-compute Schwartz prescreening matrix in partically contracted basis (1) ...done (   0.219 sec)
--------------
SCF ITERATIONS
--------------
ITER       Energy         Delta-E        Max-DP      RMS-DP      [F,P]     Damp
               ***  Starting incremental Fock matrix formation  ***
  0  -1046.5817662628   0.000000000000 0.38038911  0.00132371  0.2448676 0.7000
  1  -1046.7844224989  -0.202656236087 0.26637935  0.00094975  0.1070594 0.7000
                               ***Turning on DIIS***
  2  -1046.8662767025  -0.081854203585 0.56709524  0.00196511  0.0376325 0.0000
  3  -1046.9837423396  -0.117465637112 0.05899695  0.00043180  0.0524475 0.0000
  4  -1047.0179844807  -0.034242141095 0.02459954  0.00017331  0.0115116 0.0000
  5  -1047.0198037225  -0.001819241785 0.00843698  0.00006205  0.0079327 0.0000
                      *** Initiating the SOSCF procedure ***
                           *** Shutting down DIIS ***
                      *** Re-Reading the Fockian *** 
                      *** Removing any level shift *** 
ITER      Energy       Delta-E        Grad      Rot      Max-DP    RMS-DP
  6  -1047.02000825  -0.0002045255  0.000486  0.000486  0.007829  0.000034
               *** Restarting incremental Fock matrix formation ***
  7  -1047.02001076  -0.0000025125  0.000196  0.001322  0.026574  0.000412
  8  -1047.02001475  -0.0000039869  0.000130  0.000534  0.008122  0.000123
  9  -1047.02001568  -0.0000009362  0.000087  0.000237  0.007705  0.000116
 10  -1047.02001615  -0.0000004642  0.000019  0.000088  0.021773  0.000048
 11  -1047.02001611   0.0000000349  0.000026  0.000092  0.013088  0.000034
 12  -1047.02001617  -0.0000000536  0.000008  0.000023  0.008115  0.000027
 13  -1047.02001618  -0.0000000099  0.000005  0.000011  0.001854  0.000015
                  ***Gradient check signals convergence***
              ***Rediagonalizing the Fockian in SOSCF/NRSCF***

               *****************************************************
               *                     SUCCESS                       *
               *           SCF CONVERGED AFTER  14 CYCLES          *
               *****************************************************

Old exchange energy                            =    -22.896473242 Eh
New exchange energy                            =    -22.896461112 Eh
Exchange energy change after final integration =      0.000012130 Eh
Total energy after final integration           =  -1047.020004009 Eh
Final COS-X integration done in                =    94.532 sec

SMD CDS free energy correction energy :                -1.63987     Kcal/mol
Total Energy after SMD CDS correction =             -1047.022617306 Eh

----------------
TOTAL SCF ENERGY
----------------

Total Energy       :        -1047.02261731 Eh          -28490.93387 eV

Components:
Nuclear Repulsion  :         1151.90683740 Eh           31344.97859 eV
Electronic Energy  :        -2198.92945470 Eh          -59835.91246 eV
One Electron Energy:        -3714.40955655 Eh         -101074.22255 eV
Two Electron Energy:         1515.48010185 Eh           41238.31009 eV
Max COSX asymmetry :            0.00002544 Eh               0.00069 eV
CPCM Dielectric    :           -0.01745614 Eh              -0.47501 eV
SMD CDS (Gcds)     :           -0.00261330 Eh              -0.07111 eV

Virial components:
Potential Energy   :        -2089.65235520 Eh          -56862.33141 eV
Kinetic Energy     :         1042.62973790 Eh           28371.39754 eV
Virial Ratio       :            2.00421327


DFT components:
N(Alpha)           :       62.000082414883 electrons
N(Beta)            :       62.000082414883 electrons
N(Total)           :      124.000164829766 electrons
E(X)               :      -90.973882806203 Eh       
E(C)               :       -5.100270423828 Eh       
E(XC)              :      -96.074153230032 Eh       
DFET-embed. en.    :        0.000000000000 Eh       
CPCM Solvation Model Properties:
Surface-charge          :           -0.05384758
Charge-correction       :            0.00018815 Eh               0.00512 eV
Free-energy (cav+disp)  :           -0.00261330 Eh              -0.07111 eV

---------------
SCF CONVERGENCE
---------------

  Last Energy change         ...    3.6712e-08  Tolerance :   1.0000e-08
  Last MAX-Density change    ...    5.3291e-15  Tolerance :   1.0000e-07
  Last RMS-Density change    ...    1.5977e-17  Tolerance :   5.0000e-09
  Last Orbital Gradient      ...    1.9372e-06  Tolerance :   1.0000e-05
  Last Orbital Rotation      ...    2.1296e-06  Tolerance :   1.0000e-05

             **** THE GBW FILE WAS UPDATED (b3lyp-train-18.gbw) ****
             **** DENSITY b3lyp-train-18.scfp WAS UPDATED ****
             **** ENERGY FILE WAS UPDATED (b3lyp-train-18.en.tmp) ****
             **** THE GBW FILE WAS UPDATED (b3lyp-train-18.gbw) ****
             **** DENSITY b3lyp-train-18.scfp WAS UPDATED ****
----------------
ORBITAL ENERGIES
----------------

  NO   OCC          E(Eh)            E(eV) 
   0   2.0000     -88.930608     -2419.9249 
   1   2.0000     -14.324468      -389.7886 
   2   2.0000     -14.317943      -389.6110 
   3   2.0000     -10.248569      -278.8778 
   4   2.0000     -10.218290      -278.0538 
   5   2.0000     -10.211074      -277.8575 
   6   2.0000     -10.209117      -277.8042 
   7   2.0000     -10.208222      -277.7798 
   8   2.0000     -10.206850      -277.7425 
   9   2.0000     -10.187904      -277.2270 
  10   2.0000     -10.187608      -277.2189 
  11   2.0000     -10.184124      -277.1241 
  12   2.0000     -10.174236      -276.8550 
  13   2.0000     -10.172689      -276.8129 
  14   2.0000     -10.172199      -276.7996 
  15   2.0000     -10.171433      -276.7788 
  16   2.0000     -10.171011      -276.7673 
  17   2.0000      -7.982014      -217.2016 
  18   2.0000      -5.945257      -161.7787 
  19   2.0000      -5.941798      -161.6846 
  20   2.0000      -5.939936      -161.6339 
  21   2.0000      -0.985807       -26.8252 
  22   2.0000      -0.955377       -25.9971 
  23   2.0000      -0.866035       -23.5660 
  24   2.0000      -0.834094       -22.6969 
  25   2.0000      -0.809895       -22.0384 
  26   2.0000      -0.780457       -21.2373 
  27   2.0000      -0.768195       -20.9037 
  28   2.0000      -0.749279       -20.3889 
  29   2.0000      -0.722920       -19.6716 
  30   2.0000      -0.653763       -17.7898 
  31   2.0000      -0.646116       -17.5817 
  32   2.0000      -0.622435       -16.9373 
  33   2.0000      -0.604384       -16.4461 
  34   2.0000      -0.579844       -15.7784 
  35   2.0000      -0.559817       -15.2334 
  36   2.0000      -0.532478       -14.4895 
  37   2.0000      -0.513963       -13.9856 
  38   2.0000      -0.492443       -13.4001 
  39   2.0000      -0.475333       -12.9345 
  40   2.0000      -0.469768       -12.7830 
  41   2.0000      -0.451532       -12.2868 
  42   2.0000      -0.445535       -12.1236 
  43   2.0000      -0.443133       -12.0583 
  44   2.0000      -0.432700       -11.7744 
  45   2.0000      -0.421827       -11.4785 
  46   2.0000      -0.420579       -11.4445 
  47   2.0000      -0.409678       -11.1479 
  48   2.0000      -0.404215       -10.9993 
  49   2.0000      -0.383069       -10.4238 
  50   2.0000      -0.378282       -10.2936 
  51   2.0000      -0.364642        -9.9224 
  52   2.0000      -0.348461        -9.4821 
  53   2.0000      -0.340595        -9.2681 
  54   2.0000      -0.324071        -8.8184 
  55   2.0000      -0.302495        -8.2313 
  56   2.0000      -0.287372        -7.8198 
  57   2.0000      -0.273229        -7.4350 
  58   2.0000      -0.269853        -7.3431 
  59   2.0000      -0.268886        -7.3168 
  60   2.0000      -0.259519        -7.0619 
  61   2.0000      -0.221407        -6.0248 
  62   0.0000      -0.075535        -2.0554 
  63   0.0000      -0.042444        -1.1550 
  64   0.0000      -0.022248        -0.6054 
  65   0.0000      -0.012503        -0.3402 
  66   0.0000      -0.002432        -0.0662 
  67   0.0000       0.004261         0.1160 
  68   0.0000       0.009043         0.2461 
  69   0.0000       0.014696         0.3999 
  70   0.0000       0.017406         0.4736 
  71   0.0000       0.021338         0.5806 
  72   0.0000       0.024583         0.6689 
  73   0.0000       0.030899         0.8408 
  74   0.0000       0.035487         0.9657 
  75   0.0000       0.037453         1.0192 
  76   0.0000       0.042625         1.1599 
  77   0.0000       0.044580         1.2131 
  78   0.0000       0.046151         1.2558 
  79   0.0000       0.050981         1.3873 
  80   0.0000       0.059988         1.6323 
  81   0.0000       0.060297         1.6408 
  82   0.0000       0.062421         1.6986 
  83   0.0000       0.065482         1.7819 
  84   0.0000       0.065615         1.7855 
  85   0.0000       0.073430         1.9981 
  86   0.0000       0.083553         2.2736 
  87   0.0000       0.087184         2.3724 
  88   0.0000       0.089870         2.4455 
  89   0.0000       0.091492         2.4896 
  90   0.0000       0.093618         2.5475 
  91   0.0000       0.099114         2.6970 
  92   0.0000       0.100144         2.7251 
  93   0.0000       0.106475         2.8973 
  94   0.0000       0.110010         2.9935 
  95   0.0000       0.113621         3.0918 
  96   0.0000       0.118474         3.2239 
  97   0.0000       0.120678         3.2838 
  98   0.0000       0.123380         3.3573 
  99   0.0000       0.126197         3.4340 
 100   0.0000       0.126679         3.4471 
 101   0.0000       0.128074         3.4851 
 102   0.0000       0.131070         3.5666 
 103   0.0000       0.134831         3.6689 
 104   0.0000       0.138342         3.7645 
 105   0.0000       0.141351         3.8463 
 106   0.0000       0.145484         3.9588 
 107   0.0000       0.147595         4.0163 
 108   0.0000       0.148683         4.0459 
 109   0.0000       0.149037         4.0555 
 110   0.0000       0.152205         4.1417 
 111   0.0000       0.153955         4.1893 
 112   0.0000       0.155785         4.2391 
 113   0.0000       0.158943         4.3251 
 114   0.0000       0.162559         4.4235 
 115   0.0000       0.163743         4.4557 
 116   0.0000       0.168862         4.5950 
 117   0.0000       0.169899         4.6232 
 118   0.0000       0.171393         4.6639 
 119   0.0000       0.174161         4.7392 
 120   0.0000       0.181031         4.9261 
 121   0.0000       0.181697         4.9442 
 122   0.0000       0.183128         4.9832 
 123   0.0000       0.185524         5.0484 
 124   0.0000       0.189434         5.1548 
 125   0.0000       0.190123         5.1735 
 126   0.0000       0.194228         5.2852 
 127   0.0000       0.194868         5.3026 
 128   0.0000       0.197935         5.3861 
 129   0.0000       0.200017         5.4427 
 130   0.0000       0.210826         5.7369 
 131   0.0000       0.214969         5.8496 
 132   0.0000       0.219491         5.9727 
 133   0.0000       0.221642         6.0312 
 134   0.0000       0.221958         6.0398 
 135   0.0000       0.225846         6.1456 
 136   0.0000       0.231197         6.2912 
 137   0.0000       0.232921         6.3381 
 138   0.0000       0.237814         6.4713 
 139   0.0000       0.241565         6.5733 
 140   0.0000       0.245736         6.6868 
 141   0.0000       0.248992         6.7754 
 142   0.0000       0.252212         6.8630 
 143   0.0000       0.253771         6.9055 
 144   0.0000       0.255091         6.9414 
 145   0.0000       0.258913         7.0454 
 146   0.0000       0.262011         7.1297 
 147   0.0000       0.262239         7.1359 
 148   0.0000       0.269089         7.3223 
 149   0.0000       0.271919         7.3993 
 150   0.0000       0.274913         7.4808 
 151   0.0000       0.275553         7.4982 
 152   0.0000       0.280454         7.6315 
 153   0.0000       0.285170         7.7599 
 154   0.0000       0.288352         7.8464 
 155   0.0000       0.290466         7.9040 
 156   0.0000       0.292750         7.9661 
 157   0.0000       0.298859         8.1324 
 158   0.0000       0.305543         8.3142 
 159   0.0000       0.306869         8.3503 
 160   0.0000       0.313119         8.5204 
 161   0.0000       0.313760         8.5378 
 162   0.0000       0.321407         8.7459 
 163   0.0000       0.321805         8.7568 
 164   0.0000       0.325071         8.8456 
 165   0.0000       0.326770         8.8919 
 166   0.0000       0.328677         8.9438 
 167   0.0000       0.329540         8.9672 
 168   0.0000       0.330891         9.0040 
 169   0.0000       0.336802         9.1648 
 170   0.0000       0.338509         9.2113 
 171   0.0000       0.348085         9.4719 
 172   0.0000       0.348912         9.4944 
 173   0.0000       0.349853         9.5200 
 174   0.0000       0.355049         9.6614 
 175   0.0000       0.362374         9.8607 
 176   0.0000       0.367806        10.0085 
 177   0.0000       0.369080        10.0432 
 178   0.0000       0.372583        10.1385 
 179   0.0000       0.379188        10.3182 
 180   0.0000       0.383234        10.4283 
 181   0.0000       0.388575        10.5737 
 182   0.0000       0.389943        10.6109 
 183   0.0000       0.391982        10.6664 
 184   0.0000       0.392260        10.6739 
 185   0.0000       0.393254        10.7010 
 186   0.0000       0.396781        10.7969 
 187   0.0000       0.401285        10.9195 
 188   0.0000       0.402087        10.9413 
 189   0.0000       0.405347        11.0300 
 190   0.0000       0.406793        11.0694 
 191   0.0000       0.411796        11.2055 
 192   0.0000       0.413920        11.2633 
 193   0.0000       0.418614        11.3911 
 194   0.0000       0.420572        11.4443 
 195   0.0000       0.423950        11.5363 
 196   0.0000       0.427085        11.6216 
 197   0.0000       0.427927        11.6445 
 198   0.0000       0.432234        11.7617 
 199   0.0000       0.434100        11.8125 
 200   0.0000       0.436192        11.8694 
 201   0.0000       0.444014        12.0822 
 202   0.0000       0.445555        12.1242 
 203   0.0000       0.446901        12.1608 
 204   0.0000       0.449144        12.2218 
 205   0.0000       0.455116        12.3843 
 206   0.0000       0.461228        12.5507 
 207   0.0000       0.463213        12.6047 
 208   0.0000       0.468681        12.7535 
 209   0.0000       0.471231        12.8228 
 210   0.0000       0.474184        12.9032 
 211   0.0000       0.482911        13.1407 
 212   0.0000       0.485067        13.1993 
 213   0.0000       0.488091        13.2816 
 214   0.0000       0.490427        13.3452 
 215   0.0000       0.493086        13.4176 
 216   0.0000       0.495964        13.4959 
 217   0.0000       0.498985        13.5781 
 218   0.0000       0.502782        13.6814 
 219   0.0000       0.505073        13.7437 
 220   0.0000       0.508258        13.8304 
 221   0.0000       0.513354        13.9691 
 222   0.0000       0.518545        14.1103 
 223   0.0000       0.521089        14.1796 
 224   0.0000       0.528747        14.3879 
 225   0.0000       0.530218        14.4280 
 226   0.0000       0.537798        14.6342 
 227   0.0000       0.539682        14.6855 
 228   0.0000       0.547540        14.8993 
 229   0.0000       0.550870        14.9899 
 230   0.0000       0.552904        15.0453 
 231   0.0000       0.568043        15.4572 
 232   0.0000       0.572342        15.5742 
 233   0.0000       0.582943        15.8627 
 234   0.0000       0.585308        15.9270 
 235   0.0000       0.594133        16.1672 
 236   0.0000       0.595149        16.1948 
 237   0.0000       0.599168        16.3042 
 238   0.0000       0.601659        16.3720 
 239   0.0000       0.611402        16.6371 
 240   0.0000       0.613559        16.6958 
 241   0.0000       0.619913        16.8687 
 242   0.0000       0.623069        16.9546 
 243   0.0000       0.627950        17.0874 
 244   0.0000       0.634638        17.2694 
 245   0.0000       0.637180        17.3386 
 246   0.0000       0.642699        17.4887 
 247   0.0000       0.644153        17.5283 
 248   0.0000       0.647155        17.6100 
 249   0.0000       0.654531        17.8107 
 250   0.0000       0.654776        17.8174 
 251   0.0000       0.661120        17.9900 
 252   0.0000       0.664749        18.0887 
 253   0.0000       0.670911        18.2564 
 254   0.0000       0.676091        18.3974 
 255   0.0000       0.682298        18.5663 
 256   0.0000       0.682368        18.5682 
 257   0.0000       0.685945        18.6655 
 258   0.0000       0.688273        18.7288 
 259   0.0000       0.690476        18.7888 
 260   0.0000       0.696944        18.9648 
 261   0.0000       0.699499        19.0343 
 262   0.0000       0.705000        19.1840 
 263   0.0000       0.708445        19.2778 
[...]
Total time                  ....     225.272 sec
Sum of individual times     ....     219.459 sec  ( 97.4%)

Fock matrix formation       ....     209.380 sec  ( 92.9%)
  Split-RI-J                ....      11.425 sec  (  5.5% of F)
  Chain of spheres X        ....     182.151 sec  ( 87.0% of F)
  XC integration            ....       9.381 sec  (  4.5% of F)
    Basis function eval.    ....       1.522 sec  ( 16.2% of XC)
    Density eval.           ....       3.819 sec  ( 40.7% of XC)
    XC-Functional eval.     ....       0.098 sec  (  1.0% of XC)
    XC-Potential eval.      ....       3.688 sec  ( 39.3% of XC)
Diagonalization             ....       0.604 sec  (  0.3%)
Density matrix formation    ....       0.040 sec  (  0.0%)
Population analysis         ....       0.403 sec  (  0.2%)
Initial guess               ....       0.673 sec  (  0.3%)
Orbital Transformation      ....       0.000 sec  (  0.0%)
Orbital Orthonormalization  ....       0.610 sec  (  0.3%)
DIIS solution               ....       0.196 sec  (  0.1%)
SOSCF solution              ....       0.434 sec  (  0.2%)
Grid generation             ....       7.731 sec  (  3.4%)

Maximum memory used throughout the entire SCF-calculation: 236.9 MB


           ************************************************************
           *        Program running with 4 parallel MPI-processes     *
           *              working on a common directory               *
           ************************************************************
------------------------------------------------------------------------------
                        ORCA TD-DFT/TDA CALCULATION
------------------------------------------------------------------------------

Input orbitals are from        ... b3lyp-train-18_job2.gbw
CI-vector output               ... b3lyp-train-18_job2.cis
Tamm-Dancoff approximation     ... operative
CIS-Integral strategy          ... AO-integrals
Integral handling              ... AO integral Direct
Max. core memory used          ... 4000 MB
Reference state                ... RHF
Generation of triplets         ... off
Follow IRoot                   ... off
Number of operators            ... 1
Orbital ranges used for CIS calculation:
 Operator 0:  Orbitals  21... 61  to  62...925
XAS localization array:
 Operator 0:  Orbitals  -1... -1

-------------------
XC-INTEGRATION GRID
-------------------

General Integration Accuracy     IntAcc      ... 3.467
Radial Grid Type                 RadialGrid  ... OptM3 with GC (2021)
Angular Grid (max. ang.)         AngularGrid ... 1 (Lebedev-50)
Angular grid pruning method      GridPruning ... 4 (adaptive)
Weight generation scheme         WeightScheme... Becke
Basis function cutoff            BFCut       ... 1.0000e-11
Integration weight cutoff        WCut        ... 1.0000e-14
Angular grids for H and He will be reduced by one unit
Partially contracted basis set               ... off
Rotationally invariant grid construction     ... off

Total number of grid points                  ...    20992
Total number of batches                      ...      342
Average number of points per batch           ...       61
Average number of grid points per atom       ...      777

---------------------
COSX-INTEGRATION GRID
---------------------

General Integration Accuracy     IntAcc      ... 3.067
Radial Grid Type                 RadialGrid  ... OptM3 with GC (2021)
Angular Grid (max. ang.)         AngularGrid ... 1 (Lebedev-50)
Angular grid pruning method      GridPruning ... 4 (adaptive)
Weight generation scheme         WeightScheme... Becke
Basis function cutoff            BFCut       ... 1.0000e-11
Integration weight cutoff        WCut        ... 1.0000e-14
Angular grids for H and He will be reduced by one unit
Partially contracted basis set               ... on
Rotationally invariant grid construction     ... off

Total number of grid points                  ...     9498
Total number of batches                      ...      162
Average number of points per batch           ...       58
Average number of grid points per atom       ...      352

---------------
TD-DFT XC SETUP
---------------

DFT calculation                         ... on
Name of the grid file                   ... b3lyp-train-18_job2.grid_cis.tmp
Exchange functional (TD-DFT)            ... B88
   X-Alpha parameter    XAlpha (TD-DFT) ...  0.666667
   Becke's b parameter  XBeta (TD-DFT)  ...  0.004200
Correlation functional (TD-DFT)         ... LYP
 LDA part of GGA corr.  LDAOpt (TD-DFT) ... VWN-5
Hybrid DFT                              ... on
   Exchange mixing (TD-DFT)             ...  0.200
   GGA exch. scaling (TD-DFT)           ...  0.720
   GGA corr. scaling (TD-DFT)           ...  0.810

Building densities             ... done
Calculating rho(r) on the grid ... done
Building xc-kernel on the grid ... done
                    *** TD-DFT CALCULATION INITIALIZED ***

---------------------------------
    LR-CPCM (non-equilibrium)
---------------------------------

Setting up LR-CPCM             ... done

------------------------
DAVIDSON-DIAGONALIZATION
------------------------

Dimension of the eigenvalue problem            ...  35424
Number of roots to be determined               ...     10
Maximum size of the expansion space            ...     70
Maximum number of iterations                   ...    100
Convergence tolerance for the residual         ...    1.000e-06
Convergence tolerance for the energies         ...    1.000e-06
Orthogonality tolerance                        ...    1.000e-14
Level Shift                                    ...    0.000e+00
Constructing the preconditioner                ... o.k.
Building the initial guess                     ... o.k.
Number of trial vectors determined             ...     70


                       ****Iteration    0****

   Memory handling for direct AO based CIS:
   Memory per vector needed      ...    39 MB
   Memory needed                 ...  1177 MB
   Memory available              ...  4000 MB
   Number of vectors per batch   ...   101
   Number of batches             ...     1
   Time for densities:            0.489
   Time for RI-J (Direct):       15.156
   Time for K (COSX):            77.676
   Time for XC-Integration:      36.562
   Time for LR-CPCM terms:       16.789
   Time for Sigma-Completion:     0.419
   Size of expansion space: 30
   Lowest Energy          :     0.144044244839
   Maximum Energy change  :     0.196753552595 (vector 9)
   Maximum residual norm  :     0.010466835543

                       ****Iteration    1****
   Time for densities:            0.158
   Time for RI-J (Direct):        8.549
   Time for K (COSX):            28.158
   Time for XC-Integration:      12.692
   Time for LR-CPCM terms:        7.588
   Time for Sigma-Completion:     0.132
   Size of expansion space: 40
   Lowest Energy          :     0.135261954381
   Maximum Energy change  :     0.012013073517 (vector 7)
   Maximum residual norm  :     0.000399351629

                       ****Iteration    2****
   Time for densities:            0.165
   Time for RI-J (Direct):        8.687
   Time for K (COSX):            28.124
   Time for XC-Integration:      12.837
   Time for LR-CPCM terms:        7.670
   Time for Sigma-Completion:     0.184
   Size of expansion space: 50
   Lowest Energy          :     0.134906758637
   Maximum Energy change  :     0.000520357251 (vector 7)
   Maximum residual norm  :     0.000041985612

                       ****Iteration    3****
   Time for densities:            0.154
   Time for RI-J (Direct):        8.611
   Time for K (COSX):            28.587
   Time for XC-Integration:      12.794
   Time for LR-CPCM terms:        7.601
   Time for Sigma-Completion:     0.127
   Size of expansion space: 60
   Lowest Energy          :     0.134874337002
   Maximum Energy change  :     0.000060929754 (vector 7)
   Maximum residual norm  :     0.000001897871

                       ****Iteration    4****
   Time for densities:            0.153
   Time for RI-J (Direct):        8.696
   Time for K (COSX):            27.956
   Time for XC-Integration:      12.941
   Time for LR-CPCM terms:        7.661
   Time for Sigma-Completion:     0.165
   Size of expansion space: 70
   Lowest Energy          :     0.134873137607
   Maximum Energy change  :     0.000002196942 (vector 7)
   Maximum residual norm  :     0.000000105379

      *** CONVERGENCE OF RESIDUAL NORM REACHED ***

Storing the converged CI vectors               ... b3lyp-train-18_job2.cis1

                 *** DAVIDSON DONE ***

Total time for solving the CIS problem:   379.861sec

------------------------------------
TD-DFT/TDA EXCITED STATES (SINGLETS)
------------------------------------

the weight of the individual excitations are printed if larger than 1.0e-02

STATE  1:  E=   0.134873 au      3.670 eV    29601.2 cm**-1 <S**2> =   0.000000
    61a ->  62a  :     0.939704 (c=  0.96938344)
    61a ->  63a  :     0.024775 (c=  0.15740089)

STATE  2:  E=   0.159346 au      4.336 eV    34972.3 cm**-1 <S**2> =   0.000000
    58a ->  62a  :     0.955274 (c= -0.97738100)
    58a ->  63a  :     0.014344 (c= -0.11976826)
    58a ->  69a  :     0.013836 (c=  0.11762506)

STATE  3:  E=   0.163193 au      4.441 eV    35816.8 cm**-1 <S**2> =   0.000000
    56a ->  62a  :     0.013469 (c= -0.11605393)
    60a ->  62a  :     0.899517 (c=  0.94842893)
    61a ->  63a  :     0.067006 (c=  0.25885516)

STATE  4:  E=   0.167521 au      4.558 eV    36766.5 cm**-1 <S**2> =   0.000000
    56a ->  62a  :     0.018296 (c=  0.13526248)
    57a ->  62a  :     0.114814 (c=  0.33884182)
    59a ->  62a  :     0.110755 (c=  0.33279857)
    60a ->  62a  :     0.051517 (c= -0.22697319)
    61a ->  63a  :     0.527198 (c=  0.72608372)
    61a ->  64a  :     0.105012 (c=  0.32405569)
    61a ->  65a  :     0.013866 (c=  0.11775579)

STATE  5:  E=   0.171696 au      4.672 eV    37682.8 cm**-1 <S**2> =   0.000000
    56a ->  62a  :     0.075513 (c= -0.27479611)
    57a ->  62a  :     0.109231 (c=  0.33050176)
    59a ->  62a  :     0.341204 (c=  0.58412645)
    59a ->  64a  :     0.011846 (c= -0.10883742)
    61a ->  63a  :     0.256633 (c= -0.50658922)
    61a ->  64a  :     0.134729 (c=  0.36705456)

STATE  6:  E=   0.172178 au      4.685 eV    37788.7 cm**-1 <S**2> =   0.000000
    56a ->  62a  :     0.869777 (c= -0.93261855)
    57a ->  62a  :     0.012425 (c= -0.11146694)
    60a ->  62a  :     0.025902 (c= -0.16094205)
    61a ->  63a  :     0.046740 (c=  0.21619524)

STATE  7:  E=   0.178325 au      4.852 eV    39137.8 cm**-1 <S**2> =   0.000000
    57a ->  62a  :     0.030724 (c=  0.17528339)
    59a ->  62a  :     0.079017 (c= -0.28110022)
    60a ->  62a  :     0.014490 (c= -0.12037649)
    60a ->  63a  :     0.290110 (c= -0.53861835)
    61a ->  63a  :     0.010728 (c=  0.10357527)
    61a ->  64a  :     0.021603 (c=  0.14697803)
    61a ->  65a  :     0.511780 (c= -0.71538792)

STATE  8:  E=   0.178631 au      4.861 eV    39204.9 cm**-1 <S**2> =   0.000000
    57a ->  62a  :     0.556485 (c=  0.74597926)
    59a ->  62a  :     0.271977 (c= -0.52151375)
    60a ->  63a  :     0.055816 (c=  0.23625418)
    61a ->  63a  :     0.016995 (c= -0.13036530)
    61a ->  65a  :     0.033637 (c=  0.18340370)

STATE  9:  E=   0.186808 au      5.083 eV    40999.6 cm**-1 <S**2> =   0.000000
    54a ->  64a  :     0.010722 (c= -0.10354935)
    57a ->  62a  :     0.093218 (c= -0.30531617)
    59a ->  62a  :     0.106827 (c= -0.32684364)
    59a ->  63a  :     0.014315 (c=  0.11964481)
    60a ->  63a  :     0.017853 (c=  0.13361361)
    61a ->  64a  :     0.700412 (c=  0.83690648)
    61a ->  65a  :     0.013437 (c=  0.11591700)

STATE 10:  E=   0.192898 au      5.249 eV    42336.1 cm**-1 <S**2> =   0.000000
    61a ->  66a  :     0.807553 (c= -0.89863974)
    61a ->  67a  :     0.059558 (c=  0.24404555)
    61a ->  68a  :     0.078051 (c= -0.27937566)
    61a ->  70a  :     0.015586 (c=  0.12484298)


-----------------------------
TD-DFT/TDA-EXCITATION SPECTRA
-----------------------------

Center of mass = (  0.6793, -0.1512,  0.0314)
Calculating the Dipole integrals                  ... done
Transforming integrals                            ... done
Calculating the Linear Momentum integrals         ... done
Transforming integrals                            ... done
Calculating angular momentum integrals            ... done
Transforming integrals                            ... done

-----------------------------------------------------------------------------
         ABSORPTION SPECTRUM VIA TRANSITION ELECTRIC DIPOLE MOMENTS
-----------------------------------------------------------------------------
State   Energy    Wavelength  fosc         T2        TX        TY        TZ  
        (cm-1)      (nm)                 (au**2)    (au)      (au)      (au) 
-----------------------------------------------------------------------------
   1   29601.2    337.8   0.263200801   2.92720  -1.49935  -0.21521   0.79551
   2   34972.3    285.9   0.002991699   0.02816  -0.03004  -0.15734  -0.05004
   3   35816.8    279.2   0.004024046   0.03699  -0.05933   0.06251  -0.17193
   4   36766.5    272.0   0.355829619   3.18614  -1.57331   0.28629  -0.79301
   5   37682.8    265.4   0.289812321   2.53192   1.59099  -0.00502  -0.02548
   6   37788.7    264.6   0.041536041   0.36186  -0.58894  -0.00451  -0.12243
   7   39137.8    255.5   0.087680495   0.73753  -0.85727  -0.01130   0.04996
   8   39204.9    255.1   0.298265282   2.50460  -1.48611  -0.12613   0.52931
   9   40999.6    243.9   0.092876883   0.74577   0.41421  -0.26643   0.70938
  10   42336.1    236.2   0.000768454   0.00598  -0.06218   0.03181   0.03312

-----------------------------------------------------------------------------
         ABSORPTION SPECTRUM VIA TRANSITION VELOCITY DIPOLE MOMENTS
-----------------------------------------------------------------------------
State   Energy    Wavelength   fosc        P2         PX        PY        PZ  
        (cm-1)      (nm)                 (au**2)     (au)      (au)      (au) 
-----------------------------------------------------------------------------
   1   29601.2    337.8   0.064999178   0.01315   0.11397  -0.00595   0.01124
   2   34972.3    285.9   0.000188765   0.00005   0.00129  -0.00596  -0.00282
   3   35816.8    279.2   0.001153375   0.00028   0.01389  -0.00573   0.00752
   4   36766.5    272.0   0.124951405   0.03140   0.17583  -0.00473   0.02145
   5   37682.8    265.4   0.161390740   0.04157  -0.20383  -0.00239  -0.00379
   6   37788.7    264.6   0.023310508   0.00602   0.07495  -0.02004  -0.00094
   7   39137.8    255.5   0.043764782   0.01171   0.10649   0.00368  -0.01876
   8   39204.9    255.1   0.090715978   0.02431   0.14674   0.01294  -0.05107
   9   40999.6    243.9   0.003826763   0.00107  -0.03007   0.00473  -0.01207
  10   42336.1    236.2   0.002228907   0.00064   0.01082  -0.02216  -0.00608

-------------------------------------------------------------------
                             CD SPECTRUM
-------------------------------------------------------------------
State  Energy     Wavelength     R         MX        MY        MZ   
       (cm-1)       (nm)     (1e40*cgs)   (au)      (au)      (au)  
-------------------------------------------------------------------
   1   29601.2    337.8     16.14190  -0.01141  -0.16841  -0.02402
   2   34972.3    285.9      1.21845  -0.11322   0.06737  -0.19552
   3   35816.8    279.2      0.42460  -0.04113  -0.07811  -0.01944
   4   36766.5    272.0    -49.77782   0.06110  -0.35086  -0.11475
   5   37682.8    265.4    -77.32476  -0.10100   0.23146   0.08492
   6   37788.7    264.6     79.96339  -0.28750  -0.09728   0.00120
   7   39137.8    255.5      5.99527  -0.01501  -0.23876  -0.05699
   8   39204.9    255.1     -2.36435   0.00220   0.09025   0.01821
   9   40999.6    243.9     11.64439  -0.01138  -0.31307  -0.07612
  10   42336.1    236.2     -0.09802  -0.07792   0.03204  -0.18331

-------------------------------------------------------------------
         CD SPECTRUM VIA TRANSITION VELOCITY DIPOLE MOMENTS        
-------------------------------------------------------------------
State  Energy     Wavelength     R         MX        MY        MZ   
       (cm-1)       (nm)     (1e40*cgs)   (au)      (au)      (au)  
-------------------------------------------------------------------
   1   29601.2    337.8     -1.98512  -0.01141  -0.16841  -0.02402
   2   34972.3    285.9      0.00895  -0.11322   0.06737  -0.19552
   3   35816.8    279.2     -0.78041  -0.04113  -0.07811  -0.01944
   4   36766.5    272.0     27.97888   0.06110  -0.35086  -0.11475
   5   37682.8    265.4     54.12525  -0.10100   0.23146   0.08492
   6   37788.7    264.6    -53.66832  -0.28750  -0.09728   0.00120
   7   39137.8    255.5     -3.72219  -0.01501  -0.23876  -0.05699
   8   39204.9    255.1      1.47953   0.00220   0.09025   0.01821
   9   40999.6    243.9     -0.55745  -0.01138  -0.31307  -0.07612
  10   42336.1    236.2     -1.07082  -0.07792   0.03204  -0.18331

Total run time:      385.636 sec

           *** ORCA-CIS/TD-DFT FINISHED WITHOUT ERROR ***

Maximum memory used throughout the entire CIS-calculation: 1111.5 MB

-----------------------
CIS/TD-DFT TOTAL ENERGY
-----------------------

    E(SCF)  =  -1047.025194699 Eh
    DE(CIS) =      0.134873138 Eh (Root  1)
    ----------------------------- ---------
    E(tot)  =  -1046.890321561 Eh


-------------------------   --------------------
FINAL SINGLE POINT ENERGY     -1046.890321561429
-------------------------   --------------------


                            ***************************************
                            *     ORCA property calculations      *
                            ***************************************

                                    ---------------------
                                    Active property flags
                                    ---------------------
   (+) Dipole Moment


------------------------------------------------------------------------------
                       ORCA ELECTRIC PROPERTIES CALCULATION
------------------------------------------------------------------------------

Dipole Moment Calculation                       ... on
Quadrupole Moment Calculation                   ... off
Polarizability Calculation                      ... off
GBWName                                         ... b3lyp-train-18_job2.gbw
Electron density                                ... b3lyp-train-18_job2.scfp
The origin for moment calculation is the CENTER OF MASS  = ( 0.679343, -0.151235  0.031351)

-------------
DIPOLE MOMENT
-------------
                                X             Y             Z
Electronic contribution:      6.45425      -1.56447       5.06285
Nuclear contribution   :     -7.75047       1.22302      -3.83358
                        -----------------------------------------
Total Dipole Moment    :     -1.29622      -0.34144       1.22927
                        -----------------------------------------
Magnitude (a.u.)       :      1.81876
Magnitude (Debye)      :      4.62291



--------------------
Rotational spectrum 
--------------------
 
Rotational constants in cm-1:     0.036639     0.006929     0.005852 
Rotational constants in MHz :  1098.417873   207.740396   175.429197 

 Dipole components along the rotational axes: 
x,y,z [a.u.] :    -1.313844    -1.256194    -0.060561 
x,y,z [Debye]:    -3.339526    -3.192990    -0.153933 

 

Timings for individual modules:

Sum of individual times         ...      616.138 sec (=  10.269 min)
GTO integral calculation        ...        3.863 sec (=   0.064 min)   0.6 %
SCF iterations                  ...      225.798 sec (=   3.763 min)  36.6 %
CIS module                      ...      386.476 sec (=   6.441 min)  62.7 %



                             ****ORCA TERMINATED NORMALLY****
TOTAL RUN TIME: 0 days 4 hours 1 minutes 20 seconds 518 msec
