
                                 *****************
                                 * O   R   C   A *
                                 *****************

                                            #,                                       
                                            ###                                      
                                            ####                                     
                                            #####                                    
                                            ######                                   
                                           ########,                                 
                                     ,,################,,,,,                         
                               ,,#################################,,                 
                          ,,##########################################,,             
                       ,#########################################, ''#####,          
                    ,#############################################,,   '####,        
                  ,##################################################,,,,####,       
                ,###########''''           ''''###############################       
              ,#####''   ,,,,##########,,,,          '''####'''          '####       
            ,##' ,,,,###########################,,,                        '##       
           ' ,,###''''                  '''############,,,                           
         ,,##''                                '''############,,,,        ,,,,,,###''
      ,#''                                            '''#######################'''  
     '                                                          ''''####''''         
             ,#######,   #######,   ,#######,      ##                                
            ,#'     '#,  ##    ##  ,#'     '#,    #''#        ######   ,####,        
            ##       ##  ##   ,#'  ##            #'  '#       #        #'  '#        
            ##       ##  #######   ##           ,######,      #####,   #    #        
            '#,     ,#'  ##    ##  '#,     ,#' ,#      #,         ##   #,  ,#        
             '#######'   ##     ##  '#######'  #'      '#     #####' # '####'        



                  #######################################################
                  #                        -***-                        #
                  #          Department of theory and spectroscopy      #
                  #    Directorship and core code : Frank Neese         #
                  #        Max Planck Institute fuer Kohlenforschung    #
                  #                Kaiser Wilhelm Platz 1               #
                  #                 D-45470 Muelheim/Ruhr               #
                  #                      Germany                        #
                  #                                                     #
                  #                  All rights reserved                #
                  #                        -***-                        #
                  #######################################################


                         Program Version 5.0.2 -  RELEASE  -


 With contributions from (in alphabetic order):
   Daniel Aravena         : Magnetic Suceptibility
   Michael Atanasov       : Ab Initio Ligand Field Theory (pilot matlab implementation)
   Alexander A. Auer      : GIAO ZORA, VPT2 properties, NMR spectrum
   Ute Becker             : Parallelization
   Giovanni Bistoni       : ED, misc. LED, open-shell LED, HFLD
   Martin Brehm           : Molecular dynamics
   Dmytro Bykov           : SCF Hessian
   Vijay G. Chilkuri      : MRCI spin determinant printing, contributions to CSF-ICE
   Dipayan Datta          : RHF DLPNO-CCSD density
   Achintya Kumar Dutta   : EOM-CC, STEOM-CC
   Dmitry Ganyushin       : Spin-Orbit,Spin-Spin,Magnetic field MRCI
   Miquel Garcia          : C-PCM and meta-GGA Hessian, CC/C-PCM, Gaussian charge scheme
   Yang Guo               : DLPNO-NEVPT2, F12-NEVPT2, CIM, IAO-localization
   Andreas Hansen         : Spin unrestricted coupled pair/coupled cluster methods
   Benjamin Helmich-Paris : MC-RPA, TRAH-SCF, COSX integrals
   Lee Huntington         : MR-EOM, pCC
   Robert Izsak           : Overlap fitted RIJCOSX, COSX-SCS-MP3, EOM
   Marcus Kettner         : VPT2
   Christian Kollmar      : KDIIS, OOCD, Brueckner-CCSD(T), CCSD density, CASPT2, CASPT2-K
   Simone Kossmann        : Meta GGA functionals, TD-DFT gradient, OOMP2, MP2 Hessian
   Martin Krupicka        : Initial AUTO-CI
   Lucas Lang             : DCDCAS
   Marvin Lechner         : AUTO-CI (C++ implementation), FIC-MRCC
   Dagmar Lenk            : GEPOL surface, SMD
   Dimitrios Liakos       : Extrapolation schemes; Compound Job, initial MDCI parallelization
   Dimitrios Manganas     : Further ROCIS development; embedding schemes
   Dimitrios Pantazis     : SARC Basis sets
   Anastasios Papadopoulos: AUTO-CI, single reference methods and gradients
   Taras Petrenko         : DFT Hessian,TD-DFT gradient, ASA, ECA, R-Raman, ABS, FL, XAS/XES, NRVS
   Peter Pinski           : DLPNO-MP2, DLPNO-MP2 Gradient
   Christoph Reimann      : Effective Core Potentials
   Marius Retegan         : Local ZFS, SOC
   Christoph Riplinger    : Optimizer, TS searches, QM/MM, DLPNO-CCSD(T), (RO)-DLPNO pert. Triples
   Tobias Risthaus        : Range-separated hybrids, TD-DFT gradient, RPA, STAB
   Michael Roemelt        : Original ROCIS implementation
   Masaaki Saitow         : Open-shell DLPNO-CCSD energy and density
   Barbara Sandhoefer     : DKH picture change effects
   Avijit Sen             : IP-ROCIS
   Kantharuban Sivalingam : CASSCF convergence, NEVPT2, FIC-MRCI
   Bernardo de Souza      : ESD, SOC TD-DFT
   Georgi Stoychev        : AutoAux, RI-MP2 NMR, DLPNO-MP2 response
   Willem Van den Heuvel  : Paramagnetic NMR
   Boris Wezisla          : Elementary symmetry handling
   Frank Wennmohs         : Technical directorship


 We gratefully acknowledge several colleagues who have allowed us to
 interface, adapt or use parts of their codes:
   Stefan Grimme, W. Hujo, H. Kruse, P. Pracht,  : VdW corrections, initial TS optimization,
                  C. Bannwarth, S. Ehlert          DFT functionals, gCP, sTDA/sTD-DF
   Ed Valeev, F. Pavosevic, A. Kumar             : LibInt (2-el integral package), F12 methods
   Garnet Chan, S. Sharma, J. Yang, R. Olivares  : DMRG
   Ulf Ekstrom                                   : XCFun DFT Library
   Mihaly Kallay                                 : mrcc  (arbitrary order and MRCC methods)
   Jiri Pittner, Ondrej Demel                    : Mk-CCSD
   Frank Weinhold                                : gennbo (NPA and NBO analysis)
   Christopher J. Cramer and Donald G. Truhlar   : smd solvation model
   Lars Goerigk                                  : TD-DFT with DH, B97 family of functionals
   V. Asgeirsson, H. Jonsson                     : NEB implementation
   FAccTs GmbH                                   : IRC, NEB, NEB-TS, DLPNO-Multilevel, CI-OPT
                                                   MM, QMMM, 2- and 3-layer-ONIOM, Crystal-QMMM,
                                                   LR-CPCM, SF, NACMEs, symmetry and pop. for TD-DFT,
                                                   nearIR, NL-DFT gradient (VV10), updates on ESD,
                                                   ML-optimized integration grids
   S Lehtola, MJT Oliveira, MAL Marques          : LibXC Library
   Liviu Ungur et al                             : ANISO software


 Your calculation uses the libint2 library for the computation of 2-el integrals
 For citations please refer to: http://libint.valeyev.net

 Your ORCA version has been built with support for libXC version: 5.1.0
 For citations please refer to: https://tddft.org/programs/libxc/

 This ORCA versions uses:
   CBLAS   interface :  Fast vector & matrix operations
   LAPACKE interface :  Fast linear algebra routines
   SCALAPACK package :  Parallel linear algebra routines
   Shared memory     :  Shared parallel matrices
   BLAS/LAPACK       :  OpenBLAS 0.3.15  USE64BITINT DYNAMIC_ARCH NO_AFFINITY Sandybridge SINGLE_THREADED
        Core in use  :  Sandybridge
   Copyright (c) 2011-2014, The OpenBLAS Project


Your calculation utilizes the SMD solvation module
Please cite in your paper:
A.V. Marenich, C.J. Cramer, D.G. Truhlar J. Phys. Chem. B, 113, (2009), 6378 

XCFun DFT library Copyright 2009-2010 Ulf Ekstrom and contributors.
See http://admol.org/xcfun for more information.
This is free software; see the source code for copying conditions.
There is ABSOLUTELY NO WARRANTY; not even for MERCHANTABILITY or FITNESS FOR A PARTICULAR PURPOSE.
For details see the documentation.
Scientific users of this library should cite U. Ekstrom, L. Visscher, R. Bast, A. J. Thorvaldsen and K. Ruud;
J.Chem.Theor.Comp. 2010, DOI: 10.1021/ct100117s
XCFun Version 0.99 

================================================================================

----- Orbital basis set information -----
Your calculation utilizes the basis: aug-cc-pVTZ 
    H, B-Ne : Obtained from the ccRepo (grant-hill.group.shef.ac.uk/ccrepo) Feb. 2017
              R. A. Kendall, T. H. Dunning, Jr., R. J. Harrison, J. Chem. Phys. 96, 6796 (1992)
         He : Obtained from the ccRepo (grant-hill.group.shef.ac.uk/ccrepo) Feb. 2017
              D. E. Woon, T. H. Dunning, Jr., J. Chem. Phys. 100, 2975 (1994)
  Li-Be, Na : Obtained from the ccRepo (grant-hill.group.shef.ac.uk/ccrepo) Feb. 2017
              B. P. Prascher, D. E. Woon, K. A. Peterson, T. H. Dunning, Jr., A. K. Wilson, Theor. Chem. Acc. 128, 69 (2011)
         Mg : Obtained from the Peterson Research Group Website (tyr0.chem.wsu.edu/~kipeters) Feb. 2017
              B. P. Prascher, D. E. Woon, K. A. Peterson, T. H. Dunning, Jr., A. K. Wilson, Theor. Chem. Acc. 128, 69 (2011)
      Al-Ar : Obtained from the ccRepo (grant-hill.group.shef.ac.uk/ccrepo) Feb. 2017
              D. E. Woon, T. H. Dunning, Jr., J. Chem. Phys. 98, 1358 (1993)
      Sc-Zn : Obtained from the ccRepo (grant-hill.group.shef.ac.uk/ccrepo) Feb. 2017
              N. B. Balabanov, K. A. Peterson, J. Chem. Phys. 123, 064107 (2005)
              N. B. Balabanov, K. A. Peterson, J. Chem. Phys. 125, 074110 (2006)
      Ga-Kr : Obtained from the ccRepo (grant-hill.group.shef.ac.uk/ccrepo) Feb. 2017
              A. K. Wilson, D. E. Woon, K. A. Peterson, T. H. Dunning, Jr., J. Chem. Phys. 110, 7667 (1999)
     Ag, Au : Obtained from the Peterson Research Group Website (tyr0.chem.wsu.edu/~kipeters) Feb. 2017
              K. A. Peterson, C. Puzzarini, Theor. Chem. Acc. 114, 283 (2005)

The basis set includes element-specific modifications.

Your calculation utilizes the basis: cc-pVTZ 
       H, B-Ne : Obtained from the ccRepo (grant-hill.group.shef.ac.uk/ccrepo) Feb. 2017
                 T. H. Dunning, Jr., J. Chem. Phys. 90, 1007 (1989)
            He : Obtained from the ccRepo (grant-hill.group.shef.ac.uk/ccrepo) Feb. 2017
                 D. E. Woon, T. H. Dunning, Jr., J. Chem. Phys. 100, 2975 (1994)
  Li-Be, Na-Mg : Obtained from the ccRepo (grant-hill.group.shef.ac.uk/ccrepo) Feb. 2017
                 B. P. Prascher, D. E. Woon, K. A. Peterson, T. H. Dunning, Jr., A. K. Wilson, Theor. Chem. Acc. 128, 69 (2011)
         Al-Ar : Obtained from the ccRepo (grant-hill.group.shef.ac.uk/ccrepo) Feb. 2017
                 D. E. Woon, T. H. Dunning, Jr., J. Chem. Phys. 98, 1358 (1993)
            Ca : Obtained from the Peterson Research Group Website (tyr0.chem.wsu.edu/~kipeters) Feb. 2017
                 J. Koput, K. A. Peterson, J. Phys. Chem. 106, 9595 (2002)
         Sc-Zn : Obtained from the ccRepo (grant-hill.group.shef.ac.uk/ccrepo) Feb. 2017
                 N. B. Balabanov, K. A. Peterson, J. Chem. Phys. 123, 064107 (2005)
                 N. B. Balabanov, K. A. Peterson, J. Chem. Phys. 125, 074110 (2006)
         Ga-Kr : Obtained from the ccRepo (grant-hill.group.shef.ac.uk/ccrepo) Feb. 2017
                 A. K. Wilson, D. E. Woon, K. A. Peterson, T. H. Dunning, Jr., J. Chem. Phys. 110, 7667 (1999)
             Y : Obtained from the ccRepo (grant-hill.group.shef.ac.uk/ccrepo) Feb. 2017
                 K. A. Peterson, D. Figgen, M. Dolg, H. Stoll, J. Chem. Phys. 126, 124101 (2007)
        Ag, Au : Obtained from the Peterson Research Group Website (tyr0.chem.wsu.edu/~kipeters) Feb. 2017
                 K. A. Peterson, C. Puzzarini, Theor. Chem. Acc. 114, 283 (2005)

----- AuxJ basis set information -----
Your calculation utilizes the auxiliary basis: aug-cc-pVTZ/JK 
  H, B-F, Al-Cl, Ga-Br : Obtained from the TURBOMOLE 7.0 basis set library

The basis set includes element-specific modifications.

Your calculation utilizes the auxiliary basis: cc-pVTZ/JK 
  H, B-F, Al-Cl, Ga-Br : Obtained from the TURBOMOLE 7.0 basis set library

----- AuxC basis set information -----
Your calculation utilizes the auxiliary basis: aug-cc-pVTZ/C 
  H-He, B-F, Al-Ar, Ga-Kr : Obtained from the EMSL Basis Set Exchange (bse.pnl.gov) Feb. 2017
                            F. Weigend, A. Kohn, C. Hattig, J. Chem. Phys. 116, 3175 (2002)
                   Be, Mg : Obtained from the TURBOMOLE 7.0 basis set library
                            C. Haettig, Phys. Chem. Chem. Phys. 7, 59 (2005)
                       Ne : Obtained from the EMSL Basis Set Exchange (bse.pnl.gov) Feb. 2017
                            C. Haettig, Phys. Chem. Chem. Phys. 7, 59 (2005)
                            F. Weigend, A. Kohn, C. Hattig, J. Chem. Phys. 116, 3175 (2002)
                    Sc-Zn : Obtained from the EMSL Basis Set Exchange (bse.pnl.gov) Feb. 2017
                            J. G. Hill, J. A. Platts, J. Chem. Phys. 128, 044104 (2008)

The basis set includes element-specific modifications.

Your calculation utilizes the auxiliary basis: cc-pVTZ/C 
  Obtained from the EMSL Basis Set Exchange (bse.pnl.gov) Feb. 2017
  H-He, B-F, Al-Ar, Ga-Kr : F. Weigend, A. Kohn, C. Hattig, J. Chem. Phys. 116, 3175 (2002)
             Li-Be, Na-Mg : C. Haettig, Phys. Chem. Chem. Phys. 7, 59 (2005)
                       Ne : C. Haettig, Phys. Chem. Chem. Phys. 7, 59 (2005)
                            F. Weigend, A. Kohn, C. Hattig, J. Chem. Phys. 116, 3175 (2002)
                    Sc-Zn : J. G. Hill, J. A. Platts, J. Chem. Phys. 128, 044104 (2008)

================================================================================
                                        WARNINGS
                       Please study these warnings very carefully!
================================================================================


WARNING: Geometry Optimization
  ===> : Switching off AutoStart
         For restart on a previous wavefunction, please use MOREAD

INFO   : the flag for use of the SHARK integral package has been found!



***************************************
The coordinates will be read from file: 
***************************************


Your calculation utilizes the SMD solvation module
Please cite in your paper:
A.V. Marenich, C.J. Cramer, D.G. Truhlar J. Phys. Chem. B, 113, (2009), 6378 

XCFun DFT library Copyright 2009-2010 Ulf Ekstrom and contributors.
See http://admol.org/xcfun for more information.
This is free software; see the source code for copying conditions.
There is ABSOLUTELY NO WARRANTY; not even for MERCHANTABILITY or FITNESS FOR A PARTICULAR PURPOSE.
For details see the documentation.
Scientific users of this library should cite U. Ekstrom, L. Visscher, R. Bast, A. J. Thorvaldsen and K. Ruud;
J.Chem.Theor.Comp. 2010, DOI: 10.1021/ct100117s
XCFun Version 0.99 

================================================================================

----- Orbital basis set information -----
Your calculation utilizes the basis: aug-cc-pVTZ 
    H, B-Ne : Obtained from the ccRepo (grant-hill.group.shef.ac.uk/ccrepo) Feb. 2017
              R. A. Kendall, T. H. Dunning, Jr., R. J. Harrison, J. Chem. Phys. 96, 6796 (1992)
         He : Obtained from the ccRepo (grant-hill.group.shef.ac.uk/ccrepo) Feb. 2017
              D. E. Woon, T. H. Dunning, Jr., J. Chem. Phys. 100, 2975 (1994)
  Li-Be, Na : Obtained from the ccRepo (grant-hill.group.shef.ac.uk/ccrepo) Feb. 2017
              B. P. Prascher, D. E. Woon, K. A. Peterson, T. H. Dunning, Jr., A. K. Wilson, Theor. Chem. Acc. 128, 69 (2011)
         Mg : Obtained from the Peterson Research Group Website (tyr0.chem.wsu.edu/~kipeters) Feb. 2017
              B. P. Prascher, D. E. Woon, K. A. Peterson, T. H. Dunning, Jr., A. K. Wilson, Theor. Chem. Acc. 128, 69 (2011)
      Al-Ar : Obtained from the ccRepo (grant-hill.group.shef.ac.uk/ccrepo) Feb. 2017
              D. E. Woon, T. H. Dunning, Jr., J. Chem. Phys. 98, 1358 (1993)
      Sc-Zn : Obtained from the ccRepo (grant-hill.group.shef.ac.uk/ccrepo) Feb. 2017
              N. B. Balabanov, K. A. Peterson, J. Chem. Phys. 123, 064107 (2005)
              N. B. Balabanov, K. A. Peterson, J. Chem. Phys. 125, 074110 (2006)
      Ga-Kr : Obtained from the ccRepo (grant-hill.group.shef.ac.uk/ccrepo) Feb. 2017
              A. K. Wilson, D. E. Woon, K. A. Peterson, T. H. Dunning, Jr., J. Chem. Phys. 110, 7667 (1999)
     Ag, Au : Obtained from the Peterson Research Group Website (tyr0.chem.wsu.edu/~kipeters) Feb. 2017
              K. A. Peterson, C. Puzzarini, Theor. Chem. Acc. 114, 283 (2005)

The basis set includes element-specific modifications.

Your calculation utilizes the basis: cc-pVTZ 
       H, B-Ne : Obtained from the ccRepo (grant-hill.group.shef.ac.uk/ccrepo) Feb. 2017
                 T. H. Dunning, Jr., J. Chem. Phys. 90, 1007 (1989)
            He : Obtained from the ccRepo (grant-hill.group.shef.ac.uk/ccrepo) Feb. 2017
                 D. E. Woon, T. H. Dunning, Jr., J. Chem. Phys. 100, 2975 (1994)
  Li-Be, Na-Mg : Obtained from the ccRepo (grant-hill.group.shef.ac.uk/ccrepo) Feb. 2017
                 B. P. Prascher, D. E. Woon, K. A. Peterson, T. H. Dunning, Jr., A. K. Wilson, Theor. Chem. Acc. 128, 69 (2011)
         Al-Ar : Obtained from the ccRepo (grant-hill.group.shef.ac.uk/ccrepo) Feb. 2017
                 D. E. Woon, T. H. Dunning, Jr., J. Chem. Phys. 98, 1358 (1993)
            Ca : Obtained from the Peterson Research Group Website (tyr0.chem.wsu.edu/~kipeters) Feb. 2017
                 J. Koput, K. A. Peterson, J. Phys. Chem. 106, 9595 (2002)
         Sc-Zn : Obtained from the ccRepo (grant-hill.group.shef.ac.uk/ccrepo) Feb. 2017
                 N. B. Balabanov, K. A. Peterson, J. Chem. Phys. 123, 064107 (2005)
                 N. B. Balabanov, K. A. Peterson, J. Chem. Phys. 125, 074110 (2006)
         Ga-Kr : Obtained from the ccRepo (grant-hill.group.shef.ac.uk/ccrepo) Feb. 2017
                 A. K. Wilson, D. E. Woon, K. A. Peterson, T. H. Dunning, Jr., J. Chem. Phys. 110, 7667 (1999)
             Y : Obtained from the ccRepo (grant-hill.group.shef.ac.uk/ccrepo) Feb. 2017
                 K. A. Peterson, D. Figgen, M. Dolg, H. Stoll, J. Chem. Phys. 126, 124101 (2007)
        Ag, Au : Obtained from the Peterson Research Group Website (tyr0.chem.wsu.edu/~kipeters) Feb. 2017
                 K. A. Peterson, C. Puzzarini, Theor. Chem. Acc. 114, 283 (2005)

----- AuxJ basis set information -----
Your calculation utilizes the auxiliary basis: aug-cc-pVTZ/JK 
  H, B-F, Al-Cl, Ga-Br : Obtained from the TURBOMOLE 7.0 basis set library

The basis set includes element-specific modifications.

Your calculation utilizes the auxiliary basis: cc-pVTZ/JK 
  H, B-F, Al-Cl, Ga-Br : Obtained from the TURBOMOLE 7.0 basis set library

----- AuxC basis set information -----
Your calculation utilizes the auxiliary basis: aug-cc-pVTZ/C 
  H-He, B-F, Al-Ar, Ga-Kr : Obtained from the EMSL Basis Set Exchange (bse.pnl.gov) Feb. 2017
                            F. Weigend, A. Kohn, C. Hattig, J. Chem. Phys. 116, 3175 (2002)
                   Be, Mg : Obtained from the TURBOMOLE 7.0 basis set library
                            C. Haettig, Phys. Chem. Chem. Phys. 7, 59 (2005)
                       Ne : Obtained from the EMSL Basis Set Exchange (bse.pnl.gov) Feb. 2017
                            C. Haettig, Phys. Chem. Chem. Phys. 7, 59 (2005)
                            F. Weigend, A. Kohn, C. Hattig, J. Chem. Phys. 116, 3175 (2002)
                    Sc-Zn : Obtained from the EMSL Basis Set Exchange (bse.pnl.gov) Feb. 2017
                            J. G. Hill, J. A. Platts, J. Chem. Phys. 128, 044104 (2008)

The basis set includes element-specific modifications.

Your calculation utilizes the auxiliary basis: cc-pVTZ/C 
  Obtained from the EMSL Basis Set Exchange (bse.pnl.gov) Feb. 2017
  H-He, B-F, Al-Ar, Ga-Kr : F. Weigend, A. Kohn, C. Hattig, J. Chem. Phys. 116, 3175 (2002)
             Li-Be, Na-Mg : C. Haettig, Phys. Chem. Chem. Phys. 7, 59 (2005)
                       Ne : C. Haettig, Phys. Chem. Chem. Phys. 7, 59 (2005)
                            F. Weigend, A. Kohn, C. Hattig, J. Chem. Phys. 116, 3175 (2002)
                    Sc-Zn : J. G. Hill, J. A. Platts, J. Chem. Phys. 128, 044104 (2008)

================================================================================
                                        WARNINGS
                       Please study these warnings very carefully!
================================================================================

INFO   : Checking CIS options ...

INFO   : the flag for use of the SHARK integral package has been found!

================================================================================
                                       INPUT FILE
================================================================================
NAME = m062x-train-18.inp
|  1> ! m062x defgrid3 aug-cc-PVTZ RIJCOSX Opt
|  2> %maxcore 4000
|  3> %basis
|  4>  AuxJ "aug-cc-PVTZ/JK"
|  5>  AuxC "aug-cc-PVTZ/C"
|  6>  newGTO H "cc-PVTZ" end
|  7>  newAuxJGTO H "cc-PVTZ/JK" end
|  8>  newAuxCGTO H "cc-PVTZ/C" end
|  9> end
| 10> %cpcm
| 11>  SMD true
| 12>  SMDsolvent "ethanol"
| 13> end
| 14> %pal nprocs 4 end
| 15> * xyz 0 1
| 16> C         -4.68160        0.30280       -1.06730
| 17> C         -4.55820        0.00650        0.28040
| 18> C         -3.30890       -0.15020        0.84950
| 19> C         -2.15940       -0.01140        0.07290
| 20> C         -0.82380       -0.16900        0.63620
| 21> C         -0.50840       -0.46110        1.94080
| 22> S          1.18340       -0.55520        2.16840
| 23> C          1.37840       -0.18700        0.45350
| 24> C          2.68340       -0.08810       -0.15860
| 25> C          2.79850        0.20500       -1.51980
| 26> C          4.06540        0.29120       -2.06860
| 27> N          5.17790        0.11120       -1.37550
| 28> C          5.06900       -0.16630       -0.08730
| 29> C          3.85700       -0.27780        0.57150
| 30> N          0.26230       -0.02340       -0.16410
| 31> C         -2.29340        0.28700       -1.28310
| 32> C         -3.54470        0.44250       -1.84640
| 33> H         -5.66040        0.42420       -1.50710
| 34> H         -5.44200       -0.10330        0.89190
| 35> H         -3.22970       -0.38090        1.90090
| 36> H         -1.16210       -0.62500        2.77260
| 37> H          1.91090        0.35700       -2.11140
| 38> H          4.20260        0.51600       -3.11820
| 39> H          6.00300       -0.30580        0.44110
| 40> H          3.81790       -0.50630        1.62610
| 41> H         -1.40130        0.39350       -1.88020
| 42> H         -3.63550        0.67350       -2.89770
| 43> *
| 44> 
| 45> 
| 46> $new_job
| 47> ! m062x defgrid3 aug-cc-PVTZ RIJCOSX SP
| 48> %maxcore 4000
| 49> %basis
| 50>  AuxJ "aug-cc-PVTZ/JK"
| 51>  AuxC "aug-cc-PVTZ/C"
| 52>  newGTO H "cc-PVTZ" end
| 53>  newAuxJGTO H "cc-PVTZ/JK" end
| 54>  newAuxCGTO H "cc-PVTZ/C" end
| 55> end
| 56> %cpcm
| 57>  SMD true
| 58>  SMDsolvent "ethanol"
| 59> end
| 60> %pal nprocs 4 end
| 61> %tddft
| 62>  nroots 10
| 63>  maxdim 7
| 64> end
| 65> * xyzfile 0 1
| 66> 
| 67>                          ****END OF INPUT****
================================================================================


                 $$$$$$$$$$$$$$$$$$$$$$$$$$$$$$$$$$$$$$$$$$$$$$ 
                 $ THERE ARE  2 JOBS TO BE PROCESSED THIS RUN $
                 $$$$$$$$$$$$$$$$$$$$$$$$$$$$$$$$$$$$$$$$$$$$$$ 




                 $$$$$$$$$$$$$$$$  JOB NUMBER  1 $$$$$$$$$$$$$$


                       *****************************
                       * Geometry Optimization Run *
                       *****************************

Geometry optimization settings:
Update method            Update   .... BFGS
Choice of coordinates    CoordSys .... Z-matrix Internals
Initial Hessian          InHess   .... Almoef's Model

Convergence Tolerances:
Energy Change            TolE     ....  5.0000e-06 Eh
Max. Gradient            TolMAXG  ....  3.0000e-04 Eh/bohr
RMS Gradient             TolRMSG  ....  1.0000e-04 Eh/bohr
Max. Displacement        TolMAXD  ....  4.0000e-03 bohr
RMS Displacement         TolRMSD  ....  2.0000e-03 bohr
Strict Convergence                ....  False
------------------------------------------------------------------------------
                        ORCA OPTIMIZATION COORDINATE SETUP
------------------------------------------------------------------------------

The optimization will be done in new redundant internal coordinates
Making redundant internal coordinates   ...  (new redundants) done
Evaluating the initial hessian          ...  (Almloef) done
Evaluating the coordinates              ...  done
Calculating the B-matrix                .... done
Calculating the G-matrix                .... done
Diagonalizing the G-matrix              .... done
Small eigenvalue found = 4.208e-03
Small eigenvalue found = 2.491e-02
Small eigenvalue found = 2.852e-02
The first mode is                       ....   63
The number of degrees of freedom        ....   75

    -----------------------------------------------------------------
                    Redundant Internal Coordinates


    -----------------------------------------------------------------
         Definition                    Initial Value    Approx d2E/dq
    -----------------------------------------------------------------
      1. B(C   1,C   0)                  1.3854         0.635458   
      2. B(C   2,C   1)                  1.3817         0.644068   
      3. B(C   3,C   2)                  1.3942         0.615287   
      4. B(C   4,C   3)                  1.4581         0.486559   
      5. B(C   5,C   4)                  1.3736         0.663593   
      6. B(S   6,C   5)                  1.7096         0.520658   
      7. B(C   7,S   6)                  1.7648         0.425163   
      8. B(C   8,C   7)                  1.4448         0.510851   
      9. B(C   9,C   8)                  1.3971         0.608605   
     10. B(C  10,C   9)                  1.3833         0.640256   
     11. B(N  11,C  10)                  1.3230         0.715650   
     12. B(C  12,N  11)                  1.3222         0.717759   
     13. B(C  13,C  12)                  1.3840         0.638774   
     14. B(C  13,C   8)                  1.3951         0.613147   
     15. B(N  14,C   4)                  1.3569         0.631854   
     16. B(N  14,C   7)                  1.2860         0.819884   
     17. B(C  15,C   3)                  1.3949         0.613659   
     18. B(C  16,C  15)                  1.3810         0.645732   
     19. B(C  16,C   0)                  1.3853         0.635679   
     20. B(H  17,C   0)                  1.0799         0.373695   
     21. B(H  18,C   1)                  1.0803         0.373136   
     22. B(H  19,C   2)                  1.0793         0.374506   
     23. B(H  20,C   5)                  1.0706         0.386771   
     24. B(H  21,C   9)                  1.0775         0.377072   
     25. B(H  22,C  10)                  1.0821         0.370654   
     26. B(H  23,C  12)                  1.0821         0.370652   
     27. B(H  24,C  13)                  1.0798         0.373878   
     28. B(H  25,C  15)                  1.0788         0.375287   
     29. B(H  26,C  16)                  1.0802         0.373297   
     30. A(C   1,C   0,C  16)          119.7074         0.437962   
     31. A(C  16,C   0,H  17)          120.2297         0.356640   
     32. A(C   1,C   0,H  17)          120.0629         0.356619   
     33. A(C   0,C   1,C   2)          120.3618         0.438999   
     34. A(C   0,C   1,H  18)          119.9672         0.356529   
     35. A(C   2,C   1,H  18)          119.6710         0.357345   
     36. A(C   3,C   2,H  19)          120.2252         0.354803   
     37. A(C   1,C   2,H  19)          119.4594         0.357567   
     38. A(C   1,C   2,C   3)          120.3154         0.436453   
     39. A(C   4,C   3,C  15)          119.1224         0.414888   
     40. A(C   2,C   3,C   4)          121.9573         0.415083   
     41. A(C   2,C   3,C  15)          118.9202         0.432670   
     42. A(C   5,C   4,N  14)          113.5274         0.438023   
     43. A(C   3,C   4,C   5)          126.8870         0.420709   
     44. A(C   3,C   4,N  14)          119.5856         0.414351   
     45. A(C   4,C   5,S   6)          111.4301         0.449481   
     46. A(S   6,C   5,H  20)          119.4975         0.364917   
     47. A(C   4,C   5,H  20)          129.0724         0.361368   
     48. A(C   5,S   6,C   7)           88.1945         0.437809   
     49. A(S   6,C   7,C   8)          121.7196         0.413528   
     50. A(C   8,C   7,N  14)          124.8704         0.437938   
     51. A(S   6,C   7,N  14)          113.4100         0.447234   
     52. A(C   9,C   8,C  13)          117.9747         0.431757   
     53. A(C   7,C   8,C  13)          121.9243         0.418439   
     54. A(C   7,C   8,C   9)          120.1009         0.417885   
     55. A(C   8,C   9,C  10)          118.3614         0.435130   
     56. A(C  10,C   9,H  21)          121.8587         0.357622   
     57. A(C   8,C   9,H  21)          119.7799         0.354557   
     58. A(C   9,C  10,N  11)          123.6265         0.445104   
     59. A(N  11,C  10,H  22)          115.4529         0.361150   
     60. A(C   9,C  10,H  22)          120.9206         0.356580   
     61. A(C  10,N  11,C  12)          118.0135         0.451427   
     62. A(N  11,C  12,C  13)          123.5592         0.445154   
     63. A(C  13,C  12,H  23)          120.8660         0.356439   
     64. A(N  11,C  12,H  23)          115.5749         0.361331   
     65. A(C   8,C  13,C  12)          118.4647         0.435531   
     66. A(C  12,C  13,H  24)          120.9092         0.356965   
     67. A(C   8,C  13,H  24)          120.6261         0.354493   
     68. A(C   4,N  14,C   7)          113.4379         0.452125   
     69. A(C   3,C  15,C  16)          120.5067         0.436447   
     70. A(C  16,C  15,H  25)          120.8242         0.357851   
     71. A(C   3,C  15,H  25)          118.6691         0.354769   
     72. A(C   0,C  16,C  15)          120.1884         0.439231   
     73. A(C  15,C  16,H  26)          119.8157         0.357528   
     74. A(C   0,C  16,H  26)          119.9958         0.356576   
     75. D(C   2,C   1,C   0,H  17)    179.9970         0.028029   
     76. D(H  18,C   1,C   0,C  16)    179.9958         0.028029   
     77. D(H  18,C   1,C   0,H  17)      0.0059         0.028029   
     78. D(C   2,C   1,C   0,C  16)     -0.0131         0.028029   
     79. D(H  19,C   2,C   1,C   0)    179.9996         0.028846   
     80. D(C   3,C   2,C   1,H  18)   -179.9969         0.028846   
     81. D(H  19,C   2,C   1,H  18)     -0.0092         0.028846   
     82. D(C   3,C   2,C   1,C   0)      0.0120         0.028846   
     83. D(C  15,C   3,C   2,H  19)   -179.9986         0.026173   
     84. D(C  15,C   3,C   2,C   1)     -0.0110         0.026173   
     85. D(C   4,C   3,C   2,C   1)    179.9952         0.026173   
     86. D(C   4,C   3,C   2,H  19)      0.0076         0.026173   
     87. D(N  14,C   4,C   3,C   2)    179.9991         0.016119   
     88. D(C   5,C   4,C   3,C   2)     -0.0006         0.016119   
     89. D(C   5,C   4,C   3,C  15)   -179.9944         0.016119   
     90. D(N  14,C   4,C   3,C  15)      0.0053         0.016119   
     91. D(H  20,C   5,C   4,N  14)   -179.9935         0.030752   
     92. D(H  20,C   5,C   4,C   3)      0.0063         0.030752   
     93. D(S   6,C   5,C   4,N  14)     -0.0062         0.030752   
     94. D(S   6,C   5,C   4,C   3)    179.9935         0.030752   
     95. D(C   7,S   6,C   5,H  20)    179.9981         0.005534   
     96. D(C   7,S   6,C   5,C   4)      0.0095         0.005534   
     97. D(N  14,C   7,S   6,C   5)     -0.0115         0.004140   
     98. D(C   8,C   7,S   6,C   5)    179.9995         0.004140   
     99. D(C  13,C   8,C   7,N  14)   -179.9942         0.017786   
    100. D(C  13,C   8,C   7,S   6)     -0.0065         0.017786   
    101. D(C   9,C   8,C   7,N  14)      0.0029         0.017786   
    102. D(C   9,C   8,C   7,S   6)    179.9906         0.017786   
    103. D(H  21,C   9,C   8,C   7)     -0.0000         0.025575   
    104. D(C  10,C   9,C   8,C  13)     -0.0060         0.025575   
    105. D(C  10,C   9,C   8,C   7)    179.9968         0.025575   
    106. D(H  21,C   9,C   8,C  13)    179.9972         0.025575   
    107. D(H  22,C  10,C   9,H  21)      0.0006         0.028483   
    108. D(H  22,C  10,C   9,C   8)   -179.9961         0.028483   
    109. D(N  11,C  10,C   9,H  21)   -179.9991         0.028483   
    110. D(N  11,C  10,C   9,C   8)      0.0042         0.028483   
    111. D(C  12,N  11,C  10,H  22)   -179.9982         0.038520   
    112. D(C  12,N  11,C  10,C   9)      0.0015         0.038520   
    113. D(H  23,C  12,N  11,C  10)    179.9987         0.038770   
    114. D(C  13,C  12,N  11,C  10)     -0.0053         0.038770   
    115. D(H  24,C  13,C  12,H  23)     -0.0045         0.028342   
    116. D(C   8,C  13,C  12,H  23)    179.9990         0.028342   
    117. D(C   8,C  13,C  12,N  11)      0.0032         0.028342   
    118. D(H  24,C  13,C   8,C   9)   -179.9939         0.025980   
    119. D(H  24,C  13,C   8,C   7)      0.0033         0.025980   
    120. D(H  24,C  13,C  12,N  11)    179.9997         0.028342   
    121. D(C  12,C  13,C   8,C   9)      0.0026         0.025980   
    122. D(C  12,C  13,C   8,C   7)    179.9998         0.025980   
    123. D(C   4,N  14,C   7,C   8)    179.9988         0.052117   
    124. D(C   4,N  14,C   7,S   6)      0.0103         0.052117   
    125. D(C   7,N  14,C   4,C   5)     -0.0027         0.029374   
    126. D(C   7,N  14,C   4,C   3)    179.9975         0.029374   
    127. D(H  25,C  15,C   3,C   4)     -0.0060         0.026026   
    128. D(H  25,C  15,C   3,C   2)   -179.9999         0.026026   
    129. D(C  16,C  15,C   3,C   4)   -179.9946         0.026026   
    130. D(C  16,C  15,C   3,C   2)      0.0115         0.026026   
    131. D(C   0,C  16,C  15,H  25)    179.9988         0.029006   
    132. D(C   0,C  16,C  15,C   3)     -0.0128         0.029006   
    133. D(H  26,C  16,C   0,H  17)     -0.0097         0.028050   
    134. D(H  26,C  16,C   0,C   1)   -179.9995         0.028050   
    135. D(C  15,C  16,C   0,H  17)   -179.9966         0.028050   
    136. D(H  26,C  16,C  15,C   3)   -179.9998         0.029006   
    137. D(C  15,C  16,C   0,C   1)      0.0135         0.028050   
    138. D(H  26,C  16,C  15,H  25)      0.0118         0.029006   
    -----------------------------------------------------------------

Number of atoms                         .... 27
Number of degrees of freedom            .... 138

         *************************************************************
         *                GEOMETRY OPTIMIZATION CYCLE   1            *
         *************************************************************
---------------------------------
CARTESIAN COORDINATES (ANGSTROEM)
---------------------------------
  C     -4.681600    0.302800   -1.067300
  C     -4.558200    0.006500    0.280400
  C     -3.308900   -0.150200    0.849500
  C     -2.159400   -0.011400    0.072900
  C     -0.823800   -0.169000    0.636200
  C     -0.508400   -0.461100    1.940800
  S      1.183400   -0.555200    2.168400
  C      1.378400   -0.187000    0.453500
  C      2.683400   -0.088100   -0.158600
  C      2.798500    0.205000   -1.519800
  C      4.065400    0.291200   -2.068600
  N      5.177900    0.111200   -1.375500
  C      5.069000   -0.166300   -0.087300
  C      3.857000   -0.277800    0.571500
  N      0.262300   -0.023400   -0.164100
  C     -2.293400    0.287000   -1.283100
  C     -3.544700    0.442500   -1.846400
  H     -5.660400    0.424200   -1.507100
  H     -5.442000   -0.103300    0.891900
  H     -3.229700   -0.380900    1.900900
  H     -1.162100   -0.625000    2.772600
  H      1.910900    0.357000   -2.111400
  H      4.202600    0.516000   -3.118200
  H      6.003000   -0.305800    0.441100
  H      3.817900   -0.506300    1.626100
  H     -1.401300    0.393500   -1.880200
  H     -3.635500    0.673500   -2.897700

----------------------------
CARTESIAN COORDINATES (A.U.)
----------------------------
  NO LB      ZA    FRAG     MASS         X           Y           Z
   0 C     6.0000    0    12.011   -8.846942    0.572209   -2.016905
   1 C     6.0000    0    12.011   -8.613750    0.012283    0.529879
   2 C     6.0000    0    12.011   -6.252915   -0.283837    1.605322
   3 C     6.0000    0    12.011   -4.080675   -0.021543    0.137761
   4 C     6.0000    0    12.011   -1.556756   -0.319364    1.202244
   5 C     6.0000    0    12.011   -0.960737   -0.871353    3.667580
   6 S    16.0000    0    32.060    2.236302   -1.049176    4.097682
   7 C     6.0000    0    12.011    2.604799   -0.353379    0.856991
   8 C     6.0000    0    12.011    5.070891   -0.166485   -0.299711
   9 C     6.0000    0    12.011    5.288399    0.387394   -2.872006
  10 C     6.0000    0    12.011    7.682493    0.550288   -3.909087
  11 N     7.0000    0    14.007    9.784813    0.210138   -2.599318
  12 C     6.0000    0    12.011    9.579022   -0.314261   -0.164973
  13 C     6.0000    0    12.011    7.288674   -0.524966    1.079978
  14 N     7.0000    0    14.007    0.495675   -0.044220   -0.310104
  15 C     6.0000    0    12.011   -4.333898    0.542351   -2.424708
  16 C     6.0000    0    12.011   -6.698512    0.836204   -3.489190
  17 H     1.0000    0     1.008  -10.696606    0.801622   -2.848006
  18 H     1.0000    0     1.008  -10.283890   -0.195209    1.685447
  19 H     1.0000    0     1.008   -6.103248   -0.719797    3.592180
  20 H     1.0000    0     1.008   -2.196051   -1.181079    5.239455
  21 H     1.0000    0     1.008    3.611078    0.674632   -3.989968
  22 H     1.0000    0     1.008    7.941763    0.975099   -5.892544
  23 H     1.0000    0     1.008   11.344026   -0.577878    0.833558
  24 H     1.0000    0     1.008    7.214785   -0.956768    3.072884
  25 H     1.0000    0     1.008   -2.648073    0.743607   -3.553063
  26 H     1.0000    0     1.008   -6.870099    1.272731   -5.475859

--------------------------------
INTERNAL COORDINATES (ANGSTROEM)
--------------------------------
 C      0   0   0     0.000000000000     0.00000000     0.00000000
 C      1   0   0     1.385394001719     0.00000000     0.00000000
 C      2   1   0     1.381730867427   120.36179973     0.00000000
 C      3   2   1     1.394174755904   120.31544401     0.00000000
 C      4   3   2     1.458071332274   121.95731359   179.99518805
 C      5   4   3     1.373601372306   126.88703238     0.00000000
 S      6   5   4     1.709632653525   111.43007385   179.99348189
 C      7   6   5     1.764788443412    88.19454327     0.00000000
 C      8   7   6     1.444808852409   121.71960256   179.99950853
 C      9   8   7     1.397147472531   120.10093506   179.99060322
 C     10   9   8     1.383346482267   118.36140249   179.99676490
 N     11  10   9     1.323043408207   123.62648524     0.00000000
 C     12  11  10     1.322242300034   118.01350855     0.00000000
 C     13  12  11     1.383977488979   123.55916244     0.00000000
 N      8   7   6     1.286030299021   113.41003410     0.00000000
 C      4   3   2     1.394895895757   118.92024181     0.00000000
 C     16   4   3     1.381028178568   120.50666584     0.00000000
 H      1   2   3     1.079912700175   120.06285426   179.99703172
 H      2   1   3     1.080319735078   119.96716722   180.00886002
 H      3   2   1     1.079322514358   119.45936976   179.99962003
 H      6   5   4     1.070550391154   129.07237794     0.00000000
 H     10   9   8     1.077463836980   119.77990277     0.00000000
 H     11  10   9     1.082136331522   120.92058035   180.00387381
 H     13  12  11     1.082138073445   115.57487920   179.99870370
 H     14  13  12     1.079778782900   120.90923904   179.99971271
 H     16   4   3     1.078755333706   118.66913276   180.00007994
 H     17  16   4     1.080202448618   119.81571511   180.00016259

---------------------------
INTERNAL COORDINATES (A.U.)
---------------------------
 C      0   0   0     0.000000000000     0.00000000     0.00000000
 C      1   0   0     2.618015250827     0.00000000     0.00000000
 C      2   1   0     2.611092930222   120.36179973     0.00000000
 C      3   2   1     2.634608471485   120.31544401     0.00000000
 C      4   3   2     2.755355501720   121.95731359   179.99518805
 C      5   4   3     2.595730410836   126.88703238     0.00000000
 S      6   5   4     3.230737504772   111.43007385   179.99348189
 C      7   6   5     3.334966842358    88.19454327     0.00000000
 C      8   7   6     2.730293046918   121.71960256   179.99950853
 C      9   8   7     2.640226091784   120.10093506   179.99060322
 C     10   9   8     2.614145999808   118.36140249   179.99676490
 N     11  10   9     2.500189704801   123.62648524     0.00000000
 C     12  11  10     2.498675829751   118.01350855     0.00000000
 C     13  12  11     2.615338429682   123.55916244     0.00000000
 N      8   7   6     2.430245065075   113.41003410     0.00000000
 C      4   3   2     2.635971228312   118.92024181     0.00000000
 C     16   4   3     2.609765040722   120.50666584     0.00000000
 H      1   2   3     2.040739251875   120.06285426   179.99703172
 H      2   1   3     2.041508436369   119.96716722   180.00886002
 H      3   2   1     2.039623962312   119.45936976   179.99962003
 H      6   5   4     2.023047051843   129.07237794     0.00000000
 H     10   9   8     2.036111571096   119.77990277     0.00000000
 H     11  10   9     2.044941306143   120.92058035   180.00387381
 H     13  12  11     2.044944597901   115.57487920   179.99870370
 H     14  13  12     2.040486184899   120.90923904   179.99971271
 H     16   4   3     2.038552146212   118.66913276   180.00007994
 H     17  16   4     2.041286797079   119.81571511   180.00016259

---------------------
BASIS SET INFORMATION
---------------------
There are 4 groups of distinct atoms

 Group   1 Type C   : 19s6p3d2f contracted to 5s4p3d2f pattern {88111/3111/111/11}
 Group   2 Type S   : 42s17p3d2f contracted to 6s5p3d2f pattern {131313111/77111/111/11}
 Group   3 Type N   : 19s6p3d2f contracted to 5s4p3d2f pattern {88111/3111/111/11}
 Group   4 Type H   : 5s2p1d contracted to 3s2p1d pattern {311/11/1}

Atom   0C    basis set group =>   1
Atom   1C    basis set group =>   1
Atom   2C    basis set group =>   1
Atom   3C    basis set group =>   1
Atom   4C    basis set group =>   1
Atom   5C    basis set group =>   1
Atom   6S    basis set group =>   2
Atom   7C    basis set group =>   1
Atom   8C    basis set group =>   1
Atom   9C    basis set group =>   1
Atom  10C    basis set group =>   1
Atom  11N    basis set group =>   3
Atom  12C    basis set group =>   1
Atom  13C    basis set group =>   1
Atom  14N    basis set group =>   3
Atom  15C    basis set group =>   1
Atom  16C    basis set group =>   1
Atom  17H    basis set group =>   4
Atom  18H    basis set group =>   4
Atom  19H    basis set group =>   4
Atom  20H    basis set group =>   4
Atom  21H    basis set group =>   4
Atom  22H    basis set group =>   4
Atom  23H    basis set group =>   4
Atom  24H    basis set group =>   4
Atom  25H    basis set group =>   4
Atom  26H    basis set group =>   4
---------------------------------
AUXILIARY/J BASIS SET INFORMATION
---------------------------------
There are 4 groups of distinct atoms

 Group   1 Type C   : 10s7p5d2f1g contracted to 10s7p5d2f1g pattern {1111111111/1111111/11111/11/1}
 Group   2 Type S   : 13s11p9d3f1g contracted to 13s11p9d3f1g pattern {1111111111111/11111111111/111111111/111/1}
 Group   3 Type N   : 10s7p5d2f1g contracted to 10s7p5d2f1g pattern {1111111111/1111111/11111/11/1}
 Group   4 Type H   : 4s3p2d1f contracted to 4s3p2d1f pattern {1111/111/11/1}

Atom   0C    basis set group =>   1
Atom   1C    basis set group =>   1
Atom   2C    basis set group =>   1
Atom   3C    basis set group =>   1
Atom   4C    basis set group =>   1
Atom   5C    basis set group =>   1
Atom   6S    basis set group =>   2
Atom   7C    basis set group =>   1
Atom   8C    basis set group =>   1
Atom   9C    basis set group =>   1
Atom  10C    basis set group =>   1
Atom  11N    basis set group =>   3
Atom  12C    basis set group =>   1
Atom  13C    basis set group =>   1
Atom  14N    basis set group =>   3
Atom  15C    basis set group =>   1
Atom  16C    basis set group =>   1
Atom  17H    basis set group =>   4
Atom  18H    basis set group =>   4
Atom  19H    basis set group =>   4
Atom  20H    basis set group =>   4
Atom  21H    basis set group =>   4
Atom  22H    basis set group =>   4
Atom  23H    basis set group =>   4
Atom  24H    basis set group =>   4
Atom  25H    basis set group =>   4
Atom  26H    basis set group =>   4
---------------------------------
AUXILIARY/C BASIS SET INFORMATION
---------------------------------
There are 4 groups of distinct atoms

 Group   1 Type C   : 9s7p6d4f2g contracted to 9s7p6d4f2g pattern {111111111/1111111/111111/1111/11}
 Group   2 Type S   : 11s9p8d6f3g contracted to 11s9p8d6f3g pattern {11111111111/111111111/11111111/111111/111}
 Group   3 Type N   : 9s7p6d4f2g contracted to 9s7p6d4f2g pattern {111111111/1111111/111111/1111/11}
 Group   4 Type H   : 4s3p2d1f contracted to 4s3p2d1f pattern {1111/111/11/1}

Atom   0C    basis set group =>   1
Atom   1C    basis set group =>   1
Atom   2C    basis set group =>   1
Atom   3C    basis set group =>   1
Atom   4C    basis set group =>   1
Atom   5C    basis set group =>   1
Atom   6S    basis set group =>   2
Atom   7C    basis set group =>   1
Atom   8C    basis set group =>   1
Atom   9C    basis set group =>   1
Atom  10C    basis set group =>   1
Atom  11N    basis set group =>   3
Atom  12C    basis set group =>   1
Atom  13C    basis set group =>   1
Atom  14N    basis set group =>   3
Atom  15C    basis set group =>   1
Atom  16C    basis set group =>   1
Atom  17H    basis set group =>   4
Atom  18H    basis set group =>   4
Atom  19H    basis set group =>   4
Atom  20H    basis set group =>   4
Atom  21H    basis set group =>   4
Atom  22H    basis set group =>   4
Atom  23H    basis set group =>   4
Atom  24H    basis set group =>   4
Atom  25H    basis set group =>   4
Atom  26H    basis set group =>   4


           ************************************************************
           *        Program running with 4 parallel MPI-processes     *
           *              working on a common directory               *
           ************************************************************
------------------------------------------------------------------------------
                           ORCA GTO INTEGRAL CALCULATION
                           -- RI-GTO INTEGRALS CHOSEN --
------------------------------------------------------------------------------
------------------------------------------------------------------------------
                   ___                                                        
                  /   \      - P O W E R E D   B Y -                         
                 /     \                                                     
                 |  |  |   _    _      __       _____    __    __             
                 |  |  |  | |  | |    /  \     |  _  \  |  |  /  |          
                  \  \/   | |  | |   /    \    | | | |  |  | /  /          
                 / \  \   | |__| |  /  /\  \   | |_| |  |  |/  /          
                |  |  |   |  __  | /  /__\  \  |    /   |      \           
                |  |  |   | |  | | |   __   |  |    \   |  |\   \          
                \     /   | |  | | |  |  |  |  | |\  \  |  | \   \       
                 \___/    |_|  |_| |__|  |__|  |_| \__\ |__|  \__/        
                                                                              
                      - O R C A' S   B I G   F R I E N D -                    
                                      &                                       
                       - I N T E G R A L  F E E D E R -                       
                                                                              
 v1 FN, 2020, v2 2021                                                         
------------------------------------------------------------------------------


Reading SHARK input file m062x-train-18.SHARKINP.tmp ... ok
----------------------
SHARK INTEGRAL PACKAGE
----------------------

Number of atoms                             ...     27
Number of basis functions                   ...   1047
Number of shells                            ...    411
Maximum angular momentum                    ...      3
Integral batch strategy                     ... SHARK/LIBINT Hybrid
RI-J (if used) integral strategy            ... SPLIT-RIJ (Revised 2003 algorithm where possible)
Printlevel                                  ...      1
Contraction scheme used                     ... PARTIAL GENERAL contraction
Coulomb Range Separation                    ... NOT USED
Exchange Range Separation                   ... NOT USED
Finite Nucleus Model                        ... NOT USED
Auxiliary Coulomb fitting basis             ... AVAILABLE
   # of basis functions in Aux-J            ...   1685
   # of shells in Aux-J                     ...    537
   Maximum angular momentum in Aux-J        ...      4
Auxiliary J/K fitting basis                 ... NOT available
Auxiliary Correlation fitting basis         ... AVAILABLE
   # of basis functions in Aux-C            ...   2143
   # of shells in Aux-C                     ...    585
   Maximum angular momentum in Aux-C        ...      4
Auxiliary 'external' fitting basis          ... NOT available
Integral threshold                          ...     2.500000e-11
Primitive cut-off                           ...     2.500000e-12
Primitive pair pre-selection threshold      ...     2.500000e-12

Calculating pre-screening integrals         ... done (  0.2 sec) Dimension = 411
Calculating pre-screening integrals (ORCA)  ... done (  0.5 sec) Dimension = 300
Organizing shell pair data                  ... done (  0.8 sec)
Shell pair information
Total number of shell pairs                 ...     84666
Shell pairs after pre-screening             ...     55752
Total number of primitive shell pairs       ...    107494
Primitive shell pairs kept                  ...     64721
          la=0 lb=0:  12544 shell pairs
          la=1 lb=0:  14355 shell pairs
          la=1 lb=1:   3580 shell pairs
          la=2 lb=0:   9299 shell pairs
          la=2 lb=1:   4585 shell pairs
          la=2 lb=2:   1520 shell pairs
          la=3 lb=0:   5135 shell pairs
          la=3 lb=1:   2565 shell pairs
          la=3 lb=2:   1684 shell pairs
          la=3 lb=3:    485 shell pairs

Calculating one electron integrals          ... done (  0.2 sec)
Calculating RI/J V-Matrix + Cholesky decomp.... done (  0.3 sec)
Calculating RI/C V-Matrix + Cholesky decomp.... done (  0.5 sec)
Calculating Nuclear repulsion               ... done (  0.0 sec) ENN=   1151.906837398700 Eh

SHARK setup successfully completed in   3.6 seconds

Maximum memory used throughout the entire GTOINT-calculation: 91.4 MB


           ************************************************************
           *        Program running with 4 parallel MPI-processes     *
           *              working on a common directory               *
           ************************************************************
-------------------------------------------------------------------------------
                                 ORCA SCF
-------------------------------------------------------------------------------

------------
SCF SETTINGS
------------
Hamiltonian:
 Density Functional     Method          .... DFT(GTOs)
 Exchange Functional    Exchange        .... M062X
 Correlation Functional Correlation     .... M062X
 Gradients option       PostSCFGGA      .... off
 Hybrid DFT is turned on
   Fraction HF Exchange ScalHFX         ....  0.540000
   Scaling of DF-GGA-X  ScalDFX         ....  0.460000
   Scaling of DF-GGA-C  ScalDFC         ....  1.000000
   Scaling of DF-LDA-C  ScalLDAC        ....  1.000000
   Perturbative correction              ....  0.000000
   Density functional embedding theory  .... OFF
 RI-approximation to the Coulomb term is turned on
   Number of AuxJ basis functions       .... 1685
   RIJ-COSX (HFX calculated with COS-X)).... on


General Settings:
 Integral files         IntName         .... m062x-train-18
 Hartree-Fock type      HFTyp           .... RHF
 Total Charge           Charge          ....    0
 Multiplicity           Mult            ....    1
 Number of Electrons    NEL             ....  124
 Basis Dimension        Dim             ....  926
 Nuclear Repulsion      ENuc            ....   1151.9068373987 Eh

Convergence Acceleration:
 DIIS                   CNVDIIS         .... on
   Start iteration      DIISMaxIt       ....    12
   Startup error        DIISStart       ....  0.200000
   # of expansion vecs  DIISMaxEq       ....     5
   Bias factor          DIISBfac        ....   1.050
   Max. coefficient     DIISMaxC        ....  10.000
 Trust-Rad. Augm. Hess. CNVTRAH         .... auto
   Auto Start mean grad. ratio tolernc. ....  1.125000
   Auto Start start iteration           ....    20
   Auto Start num. interpolation iter.  ....    10
   Max. Number of Micro iterations      ....    16
   Max. Number of Macro iterations      .... Maxiter - #DIIS iter
   Number of Davidson start vectors     ....     2
   Converg. threshold I  (grad. norm)   ....   1.000e-05
   Converg. threshold II (energy diff.) ....   1.000e-08
   Grad. Scal. Fac. for Micro threshold ....   0.100
   Minimum threshold for Micro iter.    ....   0.010
   NR start threshold (gradient norm)   ....   0.001
   Initial trust radius                 ....   0.400
   Minimum AH scaling param. (alpha)    ....   1.000
   Maximum AH scaling param. (alpha)    .... 1000.000
   Orbital update algorithm             .... Taylor
   White noise on init. David. guess    .... on
   Maximum white noise                  ....   0.010
   Quad. conv. algorithm                .... NR
 SOSCF                  CNVSOSCF        .... on
   Start iteration      SOSCFMaxIt      ....   150
   Startup grad/error   SOSCFStart      ....  0.003300
 Level Shifting         CNVShift        .... on
   Level shift para.    LevelShift      ....    0.2500
   Turn off err/grad.   ShiftErr        ....    0.0010
 Zerner damping         CNVZerner       .... off
 Static damping         CNVDamp         .... on
   Fraction old density DampFac         ....    0.7000
   Max. Damping (<1)    DampMax         ....    0.9800
   Min. Damping (>=0)   DampMin         ....    0.0000
   Turn off err/grad.   DampErr         ....    0.1000
 Fernandez-Rico         CNVRico         .... off

SCF Procedure:
 Maximum # iterations   MaxIter         ....   125
 SCF integral mode      SCFMode         .... Direct
   Integral package                     .... SHARK and LIBINT hybrid scheme
 Reset frequency        DirectResetFreq ....    20
 Integral Threshold     Thresh          ....  2.500e-11 Eh
 Primitive CutOff       TCut            ....  2.500e-12 Eh

Convergence Tolerance:
 Convergence Check Mode ConvCheckMode   .... Total+1el-Energy
 Convergence forced     ConvForced      .... 0
 Energy Change          TolE            ....  1.000e-08 Eh
 1-El. energy change                    ....  1.000e-05 Eh
 Orbital Gradient       TolG            ....  1.000e-05
 Orbital Rotation angle TolX            ....  1.000e-05
 DIIS Error             TolErr          ....  5.000e-07


Diagonalization of the overlap matrix:
Smallest eigenvalue                        ... 9.352e-07
Time for diagonalization                   ...    0.352 sec
Threshold for overlap eigenvalues          ... 1.000e-08
Number of eigenvalues below threshold      ... 0
Time for construction of square roots      ...    0.196 sec
Total time needed                          ...    0.553 sec

Time for model grid setup =    0.569 sec

------------------------------
INITIAL GUESS: MODEL POTENTIAL
------------------------------
Loading Hartree-Fock densities                     ... done
Calculating cut-offs                               ... done
Initializing the effective Hamiltonian             ... done
Setting up the integral package (SHARK)            ... done
Starting the Coulomb interaction                   ... done (   1.7 sec)
Reading the grid                                   ... done
Mapping shells                                     ... done
Starting the XC term evaluation                    ... done (   1.6 sec)
  promolecular density results
     # of electrons  =    123.993612902
     EX              =   -112.600003577
     EC              =     -4.252583548
     EX+EC           =   -116.852587125
Transforming the Hamiltonian                       ... done (   0.2 sec)
Diagonalizing the Hamiltonian                      ... done (   0.4 sec)
Back transforming the eigenvectors                 ... done (   0.1 sec)
Now organizing SCF variables                       ... done
                      ------------------
                      INITIAL GUESS DONE (   4.6 sec)
                      ------------------
-------------------
DFT GRID GENERATION
-------------------

General Integration Accuracy     IntAcc      ... 4.959
Radial Grid Type                 RadialGrid  ... OptM3 with GC (2021)
Angular Grid (max. ang.)         AngularGrid ... 6 (Lebedev-590)
Angular grid pruning method      GridPruning ... 4 (adaptive)
Weight generation scheme         WeightScheme... Becke
Basis function cutoff            BFCut       ... 1.0000e-11
Integration weight cutoff        WCut        ... 1.0000e-14
Angular grids for H and He will be reduced by one unit
Partially contracted basis set               ... off
Rotationally invariant grid construction     ... off

Total number of grid points                  ...   338302
Total number of batches                      ...     5300
Average number of points per batch           ...       63
Average number of grid points per atom       ...    12530
Time for grid setup =    6.685 sec

--------------------
COSX GRID GENERATION
--------------------

GRIDX 1
-------
General Integration Accuracy     IntAcc      ... 4.020
Radial Grid Type                 RadialGrid  ... OptM3 with GC (2021)
Angular Grid (max. ang.)         AngularGrid ... 2 (Lebedev-110)
Angular grid pruning method      GridPruning ... 4 (adaptive)
Weight generation scheme         WeightScheme... Becke
Basis function cutoff            BFCut       ... 1.0000e-11
Integration weight cutoff        WCut        ... 1.0000e-14
Angular grids for H and He will be reduced by one unit
Partially contracted basis set               ... on
Rotationally invariant grid construction     ... off

Total number of grid points                  ...    42522
Total number of batches                      ...      676
Average number of points per batch           ...       62
Average number of grid points per atom       ...     1575
UseSFitting                                  ... on

GRIDX 2
-------
General Integration Accuracy     IntAcc      ... 4.338
Radial Grid Type                 RadialGrid  ... OptM3 with GC (2021)
Angular Grid (max. ang.)         AngularGrid ... 3 (Lebedev-194)
Angular grid pruning method      GridPruning ... 4 (adaptive)
Weight generation scheme         WeightScheme... Becke
Basis function cutoff            BFCut       ... 1.0000e-11
Integration weight cutoff        WCut        ... 1.0000e-14
Angular grids for H and He will be reduced by one unit
Partially contracted basis set               ... on
Rotationally invariant grid construction     ... off

Total number of grid points                  ...    92404
Total number of batches                      ...     1459
Average number of points per batch           ...       63
Average number of grid points per atom       ...     3422
UseSFitting                                  ... on

GRIDX 3
-------
General Integration Accuracy     IntAcc      ... 4.871
Radial Grid Type                 RadialGrid  ... OptM3 with GC (2021)
Angular Grid (max. ang.)         AngularGrid ... 4 (Lebedev-302)
Angular grid pruning method      GridPruning ... 4 (adaptive)
Weight generation scheme         WeightScheme... Becke
Basis function cutoff            BFCut       ... 1.0000e-11
Integration weight cutoff        WCut        ... 1.0000e-14
Angular grids for H and He will be reduced by one unit
Partially contracted basis set               ... on
Rotationally invariant grid construction     ... off

Total number of grid points                  ...   168667
Total number of batches                      ...     2649
Average number of points per batch           ...       63
Average number of grid points per atom       ...     6247
UseSFitting                                  ... on

Time for X-Grid setup             =   10.120 sec


--------------------
CPCM SOLVATION MODEL
--------------------
CPCM parameters:
  Epsilon                                         ...      24.8520
  Refrac                                          ...       1.3611
  Rsolv                                           ...       1.3000
  Surface type                                    ... GAUSSIAN VDW
  Epsilon function type                           ...         CPCM
Solvent:                                     ... ETHANOL
SMD-CDS solvent descriptors:
  Soln                                       ...    1.3611
  Soln25                                     ...    1.3593
  Sola                                       ...    0.3700
  Solb                                       ...    0.4800
  Solg                                       ...   31.6200
  Solc                                       ...    0.0000
  Solh                                       ...    0.0000
Radii:
 Radius for C  used is    3.4960 Bohr (=   1.8500 Ang.)
 Radius for S  used is    4.7054 Bohr (=   2.4900 Ang.)
 Radius for N  used is    3.5716 Bohr (=   1.8900 Ang.)
 Radius for H  used is    2.2677 Bohr (=   1.2000 Ang.)
Calculating surface                               ...        done! (  0.0s)
GEPOL surface points                              ...         1544
GEPOL Volume                                      ...    1722.1956
GEPOL Surface-area                                ...     932.7786
Calculating surface distance matrix               ...        done! (  0.1s)
Performing Cholesky decomposition & store         ...        done! (  0.2s)
Overall time for CPCM initialization              ...                 0.2s
 re-compute Schwartz prescreening matrix in partically contracted basis (1) ...done (   0.220 sec)
--------------
SCF ITERATIONS
--------------
ITER       Energy         Delta-E        Max-DP      RMS-DP      [F,P]     Damp
               ***  Starting incremental Fock matrix formation  ***
  0  -1046.7664822978   0.000000000000 0.20975444  0.00163794  0.2345372 0.7000
  1  -1046.9435495250  -0.177067227188 0.12794813  0.00126231  0.1195865 0.7000
                               ***Turning on DIIS***
  2  -1047.0300727080  -0.086523183026 0.19663570  0.00286739  0.0539478 0.0000
  3  -1047.1635370891  -0.133464381121 0.21347788  0.00081966  0.0526217 0.0000
  4  -1047.1900563106  -0.026519221510 0.05757893  0.00025804  0.0087300 0.0000
  5  -1047.1909416076  -0.000885296989 0.02060365  0.00008423  0.0066026 0.0000
                      *** Initiating the SOSCF procedure ***
                           *** Shutting down DIIS ***
                      *** Re-Reading the Fockian *** 
                      *** Removing any level shift *** 
ITER      Energy       Delta-E        Grad      Rot      Max-DP    RMS-DP
  6  -1047.19112676  -0.0001851569  0.001445  0.001445  0.013316  0.000046
               *** Restarting incremental Fock matrix formation ***
  7  -1047.19117145  -0.0000446813  0.000940  0.004223  0.007013  0.000128
  8  -1047.19119295  -0.0000215073  0.000287  0.002905  0.005887  0.000051
  9  -1047.19119610  -0.0000031434  0.000155  0.000240  0.003549  0.000036
 10  -1047.19119763  -0.0000015382  0.000064  0.000281  0.005591  0.000022
 11  -1047.19119768  -0.0000000422  0.000036  0.000070  0.009171  0.000023
 12  -1047.19119776  -0.0000000860  0.000008  0.000041  0.009024  0.000028
 13  -1047.19119782  -0.0000000576  0.000004  0.000005  0.005295  0.000017
                  ***Gradient check signals convergence***
              ***Rediagonalizing the Fockian in SOSCF/NRSCF***

               *****************************************************
               *                     SUCCESS                       *
               *           SCF CONVERGED AFTER  14 CYCLES          *
               *****************************************************

Old exchange energy                            =    -61.829541876 Eh
New exchange energy                            =    -61.829533233 Eh
Exchange energy change after final integration =      0.000008644 Eh
Total energy after final integration           =  -1047.191189171 Eh
Final COS-X integration done in                =   174.467 sec

SMD CDS free energy correction energy :                -1.63987     Kcal/mol
Total Energy after SMD CDS correction =             -1047.193802468 Eh

----------------
TOTAL SCF ENERGY
----------------

Total Energy       :        -1047.19380247 Eh          -28495.59205 eV

Components:
Nuclear Repulsion  :         1151.90683740 Eh           31344.97859 eV
Electronic Energy  :        -2199.10063987 Eh          -59840.57065 eV
One Electron Energy:        -3713.84115585 Eh         -101058.75558 eV
Two Electron Energy:         1514.74051598 Eh           41218.18493 eV
Max COSX asymmetry :            0.00001637 Eh               0.00045 eV
CPCM Dielectric    :           -0.01905052 Eh              -0.51839 eV
SMD CDS (Gcds)     :           -0.00261330 Eh              -0.07111 eV

Virial components:
Potential Energy   :        -2090.17844059 Eh          -56876.64692 eV
Kinetic Energy     :         1042.98463812 Eh           28381.05487 eV
Virial Ratio       :            2.00403569


DFT components:
N(Alpha)           :       62.000002124842 electrons
N(Beta)            :       62.000002124842 electrons
N(Total)           :      124.000004249684 electrons
E(XC)              :      -57.284558418229 Eh       
DFET-embed. en.    :        0.000000000000 Eh       
CPCM Solvation Model Properties:
Surface-charge          :           -0.05000451
Charge-correction       :            0.00017522 Eh               0.00477 eV
Free-energy (cav+disp)  :           -0.00261330 Eh              -0.07111 eV

---------------
SCF CONVERGENCE
---------------

  Last Energy change         ...    5.7087e-09  Tolerance :   1.0000e-08
  Last MAX-Density change    ...    3.9968e-15  Tolerance :   1.0000e-07
  Last RMS-Density change    ...    1.6633e-17  Tolerance :   5.0000e-09
  Last Orbital Gradient      ...    2.2708e-06  Tolerance :   1.0000e-05
  Last Orbital Rotation      ...    8.4333e-06  Tolerance :   1.0000e-05

             **** THE GBW FILE WAS UPDATED (m062x-train-18.gbw) ****
             **** DENSITY m062x-train-18.scfp WAS UPDATED ****
             **** ENERGY FILE WAS UPDATED (m062x-train-18.en.tmp) ****
             **** THE GBW FILE WAS UPDATED (m062x-train-18.gbw) ****
             **** DENSITY m062x-train-18.scfp WAS UPDATED ****
----------------
ORBITAL ENERGIES
----------------

  NO   OCC          E(Eh)            E(eV) 
   0   2.0000     -89.978160     -2448.4302 
   1   2.0000     -14.761940      -401.6928 
   2   2.0000     -14.754153      -401.4809 
   3   2.0000     -10.621941      -289.0377 
   4   2.0000     -10.588414      -288.1254 
   5   2.0000     -10.581382      -287.9341 
   6   2.0000     -10.579519      -287.8833 
   7   2.0000     -10.578589      -287.8580 
   8   2.0000     -10.578020      -287.8426 
   9   2.0000     -10.557586      -287.2865 
  10   2.0000     -10.557163      -287.2750 
  11   2.0000     -10.553660      -287.1797 
  12   2.0000     -10.544000      -286.9168 
  13   2.0000     -10.541793      -286.8568 
  14   2.0000     -10.541415      -286.8465 
  15   2.0000     -10.540671      -286.8262 
  16   2.0000     -10.540193      -286.8132 
  17   2.0000      -8.313179      -226.2131 
  18   2.0000      -6.232224      -169.5874 
  19   2.0000      -6.230185      -169.5320 
  20   2.0000      -6.229033      -169.5006 
  21   2.0000      -1.099544       -29.9201 
  22   2.0000      -1.068765       -29.0826 
  23   2.0000      -0.974195       -26.5092 
  24   2.0000      -0.938767       -25.5451 
  25   2.0000      -0.906250       -24.6603 
  26   2.0000      -0.880917       -23.9710 
  27   2.0000      -0.868846       -23.6425 
  28   2.0000      -0.848801       -23.0971 
  29   2.0000      -0.817843       -22.2546 
  30   2.0000      -0.741727       -20.1834 
  31   2.0000      -0.733576       -19.9616 
  32   2.0000      -0.707834       -19.2611 
  33   2.0000      -0.689058       -18.7502 
  34   2.0000      -0.661576       -18.0024 
  35   2.0000      -0.639163       -17.3925 
  36   2.0000      -0.611463       -16.6388 
  37   2.0000      -0.590784       -16.0760 
  38   2.0000      -0.563264       -15.3272 
  39   2.0000      -0.550048       -14.9676 
  40   2.0000      -0.543597       -14.7920 
  41   2.0000      -0.521495       -14.1906 
  42   2.0000      -0.520710       -14.1692 
  43   2.0000      -0.515288       -14.0217 
  44   2.0000      -0.501201       -13.6384 
  45   2.0000      -0.489706       -13.3256 
  46   2.0000      -0.486684       -13.2433 
  47   2.0000      -0.485660       -13.2155 
  48   2.0000      -0.467664       -12.7258 
  49   2.0000      -0.451176       -12.2771 
  50   2.0000      -0.444605       -12.0983 
  51   2.0000      -0.425948       -11.5906 
  52   2.0000      -0.407650       -11.0927 
  53   2.0000      -0.399456       -10.8698 
  54   2.0000      -0.386561       -10.5189 
  55   2.0000      -0.360234        -9.8025 
  56   2.0000      -0.353903        -9.6302 
  57   2.0000      -0.336732        -9.1629 
  58   2.0000      -0.328911        -8.9501 
  59   2.0000      -0.325154        -8.8479 
  60   2.0000      -0.314795        -8.5660 
  61   2.0000      -0.270441        -7.3591 
  62   0.0000      -0.047675        -1.2973 
  63   0.0000      -0.014514        -0.3949 
  64   0.0000       0.004801         0.1306 
  65   0.0000       0.008718         0.2372 
  66   0.0000       0.008870         0.2414 
  67   0.0000       0.013401         0.3647 
  68   0.0000       0.017190         0.4678 
  69   0.0000       0.020148         0.5483 
  70   0.0000       0.023949         0.6517 
  71   0.0000       0.028693         0.7808 
  72   0.0000       0.031669         0.8618 
  73   0.0000       0.037664         1.0249 
  74   0.0000       0.038875         1.0578 
  75   0.0000       0.039538         1.0759 
  76   0.0000       0.047342         1.2882 
  77   0.0000       0.049105         1.3362 
  78   0.0000       0.050242         1.3672 
  79   0.0000       0.056206         1.5294 
  80   0.0000       0.060587         1.6487 
  81   0.0000       0.061441         1.6719 
  82   0.0000       0.063885         1.7384 
  83   0.0000       0.067626         1.8402 
  84   0.0000       0.068396         1.8611 
  85   0.0000       0.081270         2.2115 
  86   0.0000       0.082919         2.2563 
  87   0.0000       0.084706         2.3050 
  88   0.0000       0.085944         2.3386 
  89   0.0000       0.088776         2.4157 
  90   0.0000       0.094428         2.5695 
  91   0.0000       0.094442         2.5699 
  92   0.0000       0.102632         2.7928 
  93   0.0000       0.106900         2.9089 
  94   0.0000       0.113013         3.0753 
  95   0.0000       0.113494         3.0883 
  96   0.0000       0.115425         3.1409 
  97   0.0000       0.118529         3.2253 
  98   0.0000       0.122189         3.3249 
  99   0.0000       0.125461         3.4140 
 100   0.0000       0.129675         3.5286 
 101   0.0000       0.134245         3.6530 
 102   0.0000       0.135568         3.6890 
 103   0.0000       0.139464         3.7950 
 104   0.0000       0.145712         3.9650 
 105   0.0000       0.147193         4.0053 
 106   0.0000       0.147234         4.0065 
 107   0.0000       0.149451         4.0668 
 108   0.0000       0.149851         4.0777 
 109   0.0000       0.154367         4.2005 
 110   0.0000       0.154607         4.2071 
 111   0.0000       0.159244         4.3333 
 112   0.0000       0.162965         4.4345 
 113   0.0000       0.166447         4.5293 
 114   0.0000       0.166836         4.5398 
 115   0.0000       0.170778         4.6471 
 116   0.0000       0.172509         4.6942 
 117   0.0000       0.177341         4.8257 
 118   0.0000       0.178460         4.8562 
 119   0.0000       0.183400         4.9906 
 120   0.0000       0.184319         5.0156 
 121   0.0000       0.186325         5.0702 
 122   0.0000       0.186925         5.0865 
 123   0.0000       0.188642         5.1332 
 124   0.0000       0.195294         5.3142 
 125   0.0000       0.199174         5.4198 
 126   0.0000       0.200675         5.4607 
 127   0.0000       0.204768         5.5720 
 128   0.0000       0.209008         5.6874 
 129   0.0000       0.217731         5.9248 
 130   0.0000       0.218266         5.9393 
 131   0.0000       0.219220         5.9653 
 132   0.0000       0.222414         6.0522 
 133   0.0000       0.228554         6.2193 
 134   0.0000       0.237335         6.4582 
 135   0.0000       0.239022         6.5041 
 136   0.0000       0.240157         6.5350 
 137   0.0000       0.242566         6.6006 
 138   0.0000       0.246182         6.6989 
 139   0.0000       0.249986         6.8025 
 140   0.0000       0.252361         6.8671 
 141   0.0000       0.261738         7.1223 
 142   0.0000       0.263326         7.1655 
 143   0.0000       0.271202         7.3798 
 144   0.0000       0.271281         7.3819 
 145   0.0000       0.275614         7.4998 
 146   0.0000       0.279466         7.6046 
 147   0.0000       0.281819         7.6687 
 148   0.0000       0.282780         7.6948 
 149   0.0000       0.286233         7.7888 
 150   0.0000       0.294111         8.0032 
 151   0.0000       0.296076         8.0566 
 152   0.0000       0.300593         8.1795 
 153   0.0000       0.303335         8.2542 
 154   0.0000       0.304361         8.2821 
 155   0.0000       0.307641         8.3713 
 156   0.0000       0.309772         8.4293 
 157   0.0000       0.315490         8.5849 
 158   0.0000       0.320194         8.7129 
 159   0.0000       0.321276         8.7424 
 160   0.0000       0.328509         8.9392 
 161   0.0000       0.329999         8.9797 
 162   0.0000       0.337215         9.1761 
 163   0.0000       0.337999         9.1974 
 164   0.0000       0.340454         9.2642 
 165   0.0000       0.343394         9.3442 
 166   0.0000       0.344934         9.3861 
 167   0.0000       0.348805         9.4915 
 168   0.0000       0.351095         9.5538 
 169   0.0000       0.352987         9.6053 
 170   0.0000       0.357353         9.7241 
 171   0.0000       0.368079        10.0159 
 172   0.0000       0.368901        10.0383 
 173   0.0000       0.369826        10.0635 
 174   0.0000       0.370253        10.0751 
 175   0.0000       0.377332        10.2677 
 176   0.0000       0.381965        10.3938 
 177   0.0000       0.383074        10.4240 
 178   0.0000       0.384778        10.4703 
 179   0.0000       0.388134        10.5617 
 180   0.0000       0.390014        10.6128 
 181   0.0000       0.394375        10.7315 
 182   0.0000       0.400960        10.9107 
 183   0.0000       0.403505        10.9799 
 184   0.0000       0.406510        11.0617 
 185   0.0000       0.410386        11.1672 
 186   0.0000       0.410820        11.1790 
 187   0.0000       0.412636        11.2284 
 188   0.0000       0.417171        11.3518 
 189   0.0000       0.421888        11.4802 
 190   0.0000       0.421934        11.4814 
 191   0.0000       0.426439        11.6040 
 192   0.0000       0.426862        11.6155 
 193   0.0000       0.430430        11.7126 
 194   0.0000       0.432003        11.7554 
 195   0.0000       0.436126        11.8676 
 196   0.0000       0.437466        11.9040 
 197   0.0000       0.442515        12.0414 
 198   0.0000       0.445996        12.1362 
 199   0.0000       0.448774        12.2117 
 200   0.0000       0.449857        12.2412 
 201   0.0000       0.456169        12.4130 
 202   0.0000       0.457377        12.4459 
 203   0.0000       0.464287        12.6339 
 204   0.0000       0.468255        12.7419 
 205   0.0000       0.468319        12.7436 
 206   0.0000       0.476322        12.9614 
 207   0.0000       0.477942        13.0055 
 208   0.0000       0.484311        13.1788 
 209   0.0000       0.489369        13.3164 
 210   0.0000       0.490046        13.3348 
 211   0.0000       0.493700        13.4343 
 212   0.0000       0.497650        13.5417 
 213   0.0000       0.504379        13.7248 
 214   0.0000       0.506284        13.7767 
 215   0.0000       0.510407        13.8889 
 216   0.0000       0.511609        13.9216 
 217   0.0000       0.517286        14.0761 
 218   0.0000       0.518377        14.1058 
 219   0.0000       0.520135        14.1536 
 220   0.0000       0.526648        14.3308 
 221   0.0000       0.527271        14.3478 
 222   0.0000       0.533278        14.5112 
 223   0.0000       0.538182        14.6447 
 224   0.0000       0.541807        14.7433 
 225   0.0000       0.551001        14.9935 
 226   0.0000       0.552517        15.0347 
 227   0.0000       0.555419        15.1137 
 228   0.0000       0.564138        15.3510 
 229   0.0000       0.569517        15.4974 
 230   0.0000       0.575932        15.6719 
 231   0.0000       0.581538        15.8245 
 232   0.0000       0.588004        16.0004 
 233   0.0000       0.600695        16.3457 
 234   0.0000       0.607578        16.5330 
 235   0.0000       0.613913        16.7054 
 236   0.0000       0.614144        16.7117 
 237   0.0000       0.615420        16.7464 
 238   0.0000       0.625313        17.0156 
 239   0.0000       0.626905        17.0590 
 240   0.0000       0.636118        17.3097 
 241   0.0000       0.641620        17.4594 
 242   0.0000       0.645108        17.5543 
 243   0.0000       0.648418        17.6443 
 244   0.0000       0.653341        17.7783 
 245   0.0000       0.658467        17.9178 
 246   0.0000       0.658806        17.9270 
 247   0.0000       0.664520        18.0825 
[...]
Correlation functional (TD-DFT)         ... M062X
Hybrid DFT                              ... on
   Exchange mixing (TD-DFT)             ...  0.540
   GGA exch. scaling (TD-DFT)           ...  0.460
   GGA corr. scaling (TD-DFT)           ...  1.000

Building densities             ... done
Calculating rho(r) on the grid ... done
Building xc-kernel on the grid ... done
                    *** TD-DFT CALCULATION INITIALIZED ***

---------------------------------
    LR-CPCM (non-equilibrium)
---------------------------------

Setting up LR-CPCM             ... done

------------------------
DAVIDSON-DIAGONALIZATION
------------------------

Dimension of the eigenvalue problem            ...  35424
Number of roots to be determined               ...     10
Maximum size of the expansion space            ...     70
Maximum number of iterations                   ...    100
Convergence tolerance for the residual         ...    1.000e-06
Convergence tolerance for the energies         ...    1.000e-06
Orthogonality tolerance                        ...    1.000e-14
Level Shift                                    ...    0.000e+00
Constructing the preconditioner                ... o.k.
Building the initial guess                     ... o.k.
Number of trial vectors determined             ...     70


                       ****Iteration    0****

   Memory handling for direct AO based CIS:
   Memory per vector needed      ...    39 MB
   Memory needed                 ...  1177 MB
   Memory available              ...  4000 MB
   Number of vectors per batch   ...   101
   Number of batches             ...     1
   Time for densities:            0.470
   Time for RI-J (Direct):       14.502
   Time for K (COSX):           194.887
   Time for XC-Integration:     188.675
   Time for LR-CPCM terms:       16.332
   Time for Sigma-Completion:     0.401
   Size of expansion space: 30
   Lowest Energy          :     0.171822323825
   Maximum Energy change  :     0.232748178231 (vector 9)
   Maximum residual norm  :     0.010180750973

                       ****Iteration    1****
   Time for densities:            0.156
   Time for RI-J (Direct):        8.555
   Time for K (COSX):            70.654
   Time for XC-Integration:      65.379
   Time for LR-CPCM terms:        7.606
   Time for Sigma-Completion:     0.142
   Size of expansion space: 40
   Lowest Energy          :     0.159068317992
   Maximum Energy change  :     0.017759993670 (vector 1)
   Maximum residual norm  :     0.001098395974

                       ****Iteration    2****
   Time for densities:            0.156
   Time for RI-J (Direct):        8.522
   Time for K (COSX):            70.728
   Time for XC-Integration:      66.323
   Time for LR-CPCM terms:        7.566
   Time for Sigma-Completion:     0.179
   Size of expansion space: 50
   Lowest Energy          :     0.157873491471
   Maximum Energy change  :     0.004439812645 (vector 9)
   Maximum residual norm  :     0.000356871765

                       ****Iteration    3****
   Time for densities:            0.153
   Time for RI-J (Direct):        8.544
   Time for K (COSX):            70.831
   Time for XC-Integration:      67.347
   Time for LR-CPCM terms:        7.599
   Time for Sigma-Completion:     0.149
   Size of expansion space: 60
   Lowest Energy          :     0.157746725471
   Maximum Energy change  :     0.001002121876 (vector 9)
   Maximum residual norm  :     0.000148432403

                       ****Iteration    4****
   Time for densities:            0.151
   Time for RI-J (Direct):        8.546
   Time for K (COSX):            70.838
   Time for XC-Integration:      67.640
   Time for LR-CPCM terms:        7.619
   Time for Sigma-Completion:     0.126
   Size of expansion space: 70
   Lowest Energy          :     0.157736652795
   Maximum Energy change  :     0.000271710627 (vector 9)
   Maximum residual norm  :     0.000018809735
   Rebuilding the expansion space

                       ****Iteration    5****
   Time for densities:            0.327
   Time for RI-J (Direct):       11.484
   Time for K (COSX):           133.138
   Time for XC-Integration:     131.528
   Time for LR-CPCM terms:       12.162
   Time for Sigma-Completion:     0.251
   Size of expansion space: 20
   Lowest Energy          :     0.157736149839
   Maximum Energy change  :     0.000043341057 (vector 9)
   Maximum residual norm  :     0.000006047334

                       ****Iteration    6****
   Time for densities:            0.155
   Time for RI-J (Direct):        8.572
   Time for K (COSX):            70.563
   Time for XC-Integration:      68.202
   Time for LR-CPCM terms:        7.625
   Time for Sigma-Completion:     0.143
   Size of expansion space: 30
   Lowest Energy          :     0.157736088270
   Maximum Energy change  :     0.000017421686 (vector 9)
   Maximum residual norm  :     0.000006449720

                       ****Iteration    7****
   Time for densities:            0.156
   Time for RI-J (Direct):        8.582
   Time for K (COSX):            70.179
   Time for XC-Integration:      66.698
   Time for LR-CPCM terms:        7.609
   Time for Sigma-Completion:     0.142
   Size of expansion space: 40
   Lowest Energy          :     0.157736083165
   Maximum Energy change  :     0.003182860526 (vector 8)
   Maximum residual norm  :     0.001607805128

                       ****Iteration    8****
   Time for densities:            0.158
   Time for RI-J (Direct):        8.589
   Time for K (COSX):            68.852
   Time for XC-Integration:      68.413
   Time for LR-CPCM terms:        7.607
   Time for Sigma-Completion:     0.146
   Size of expansion space: 50
   Lowest Energy          :     0.157736082688
   Maximum Energy change  :     0.002423391311 (vector 8)
   Maximum residual norm  :     0.000261920687

                       ****Iteration    9****
   Time for densities:            0.153
   Time for RI-J (Direct):        8.616
   Time for K (COSX):            70.258
   Time for XC-Integration:      68.847
   Time for LR-CPCM terms:        7.612
   Time for Sigma-Completion:     0.145
   Size of expansion space: 60
   Lowest Energy          :     0.157736082665
   Maximum Energy change  :     0.000439038859 (vector 8)
   Maximum residual norm  :     0.000032484795

                       ****Iteration   10****
   Time for densities:            0.154
   Time for RI-J (Direct):        8.636
   Time for K (COSX):            70.796
   Time for XC-Integration:      69.136
   Time for LR-CPCM terms:        7.660
   Time for Sigma-Completion:     0.161
   Size of expansion space: 70
   Lowest Energy          :     0.157736082662
   Maximum Energy change  :     0.000057679666 (vector 8)
   Maximum residual norm  :     0.000004422120
   Rebuilding the expansion space

                       ****Iteration   11****
   Time for densities:            0.308
   Time for RI-J (Direct):       11.487
   Time for K (COSX):           132.643
   Time for XC-Integration:     131.625
   Time for LR-CPCM terms:       12.075
   Time for Sigma-Completion:     0.276
   Size of expansion space: 20
   Lowest Energy          :     0.157736082962
   Maximum Energy change  :     0.000006102821 (vector 8)
   Maximum residual norm  :     0.000000678117

      *** CONVERGENCE OF RESIDUAL NORM REACHED ***

Storing the converged CI vectors               ... m062x-train-18_job2.cis1

                 *** DAVIDSON DONE ***

Total time for solving the CIS problem:  2386.405sec

------------------------------------
TD-DFT/TDA EXCITED STATES (SINGLETS)
------------------------------------

the weight of the individual excitations are printed if larger than 1.0e-02

STATE  1:  E=   0.157736 au      4.292 eV    34619.1 cm**-1 <S**2> =   0.000000
    58a ->  62a  :     0.016905 (c=  0.13001914)
    61a ->  62a  :     0.908672 (c= -0.95324309)

STATE  2:  E=   0.176190 au      4.794 eV    38669.3 cm**-1 <S**2> =   0.000000
    57a ->  62a  :     0.807621 (c= -0.89867738)
    57a ->  63a  :     0.047377 (c=  0.21766332)
    57a ->  68a  :     0.012703 (c=  0.11270928)
    57a ->  74a  :     0.012275 (c=  0.11079419)
    57a ->  77a  :     0.019849 (c= -0.14088498)
    57a ->  78a  :     0.014629 (c= -0.12095133)
    57a ->  79a  :     0.016603 (c=  0.12885361)
    57a ->  80a  :     0.011208 (c=  0.10586756)

STATE  3:  E=   0.184959 au      5.033 eV    40593.8 cm**-1 <S**2> =   0.000000
    58a ->  62a  :     0.026835 (c= -0.16381370)
    59a ->  62a  :     0.041216 (c= -0.20301729)
    61a ->  63a  :     0.839245 (c= -0.91610323)

STATE  4:  E=   0.188209 au      5.121 eV    41307.1 cm**-1 <S**2> =   0.000000
    56a ->  62a  :     0.829381 (c=  0.91070330)
    56a ->  74a  :     0.011826 (c=  0.10874559)
    59a ->  62a  :     0.032014 (c= -0.17892517)
    60a ->  62a  :     0.010577 (c=  0.10284280)

STATE  5:  E=   0.189641 au      5.160 eV    41621.4 cm**-1 <S**2> =   0.000000
    54a ->  66a  :     0.021677 (c=  0.14723226)
    56a ->  62a  :     0.049289 (c=  0.22201239)
    58a ->  62a  :     0.080069 (c=  0.28296424)
    58a ->  63a  :     0.023553 (c= -0.15346988)
    58a ->  66a  :     0.020844 (c=  0.14437388)
    59a ->  62a  :     0.526086 (c=  0.72531792)
    59a ->  66a  :     0.017896 (c= -0.13377618)
    60a ->  63a  :     0.015725 (c= -0.12539858)
    61a ->  63a  :     0.056590 (c= -0.23788694)
    61a ->  66a  :     0.106456 (c= -0.32627550)

STATE  6:  E=   0.192279 au      5.232 eV    42200.3 cm**-1 <S**2> =   0.000000
    58a ->  62a  :     0.047076 (c=  0.21697078)
    58a ->  68a  :     0.035704 (c=  0.18895541)
    59a ->  68a  :     0.012946 (c= -0.11378110)
    60a ->  62a  :     0.047061 (c=  0.21693531)
    60a ->  63a  :     0.341978 (c=  0.58478904)
    60a ->  66a  :     0.024237 (c=  0.15568149)
    61a ->  63a  :     0.018657 (c= -0.13659187)
    61a ->  68a  :     0.378446 (c=  0.61518002)

STATE  7:  E=   0.207620 au      5.650 eV    45567.4 cm**-1 <S**2> =   0.000000
    55a ->  62a  :     0.018569 (c=  0.13626773)
    58a ->  62a  :     0.155862 (c= -0.39479305)
    59a ->  62a  :     0.052983 (c=  0.23018061)
    60a ->  62a  :     0.034805 (c= -0.18656050)
    61a ->  64a  :     0.431432 (c= -0.65683513)
    61a ->  65a  :     0.056030 (c=  0.23670753)
    61a ->  67a  :     0.026835 (c=  0.16381297)
    61a ->  69a  :     0.040723 (c= -0.20179933)
    61a ->  75a  :     0.024894 (c= -0.15777938)
    61a ->  78a  :     0.027131 (c=  0.16471536)
    61a ->  83a  :     0.010922 (c=  0.10450855)
    61a ->  84a  :     0.011316 (c= -0.10637556)

STATE  8:  E=   0.208263 au      5.667 eV    45708.5 cm**-1 <S**2> =   0.000000
    55a ->  62a  :     0.045169 (c=  0.21252940)
    58a ->  62a  :     0.393224 (c= -0.62707601)
    59a ->  62a  :     0.084581 (c=  0.29082728)
    60a ->  62a  :     0.062844 (c= -0.25068780)
    60a ->  63a  :     0.013561 (c=  0.11644991)
    61a ->  64a  :     0.160920 (c=  0.40114897)
    61a ->  65a  :     0.018427 (c= -0.13574685)
    61a ->  66a  :     0.013044 (c=  0.11421076)
    61a ->  68a  :     0.025594 (c=  0.15998214)
    61a ->  69a  :     0.022284 (c=  0.14927875)
    61a ->  78a  :     0.011800 (c= -0.10862730)
    61a ->  84a  :     0.010598 (c=  0.10294783)

STATE  9:  E=   0.210353 au      5.724 eV    46167.2 cm**-1 <S**2> =   0.000000
    57a ->  63a  :     0.114089 (c= -0.33777070)
    57a ->  65a  :     0.051783 (c=  0.22755965)
    57a ->  66a  :     0.766297 (c=  0.87538389)
    57a ->  68a  :     0.022727 (c= -0.15075422)

STATE 10:  E=   0.216462 au      5.890 eV    47508.0 cm**-1 <S**2> =   0.000000
    58a ->  62a  :     0.101715 (c=  0.31892845)
    59a ->  62a  :     0.020454 (c= -0.14301796)
    60a ->  62a  :     0.723471 (c= -0.85057088)
    61a ->  63a  :     0.012338 (c= -0.11107510)
    61a ->  66a  :     0.019801 (c=  0.14071695)
    61a ->  68a  :     0.029491 (c=  0.17172923)
    61a ->  72a  :     0.011445 (c=  0.10698026)


-----------------------------
TD-DFT/TDA-EXCITATION SPECTRA
-----------------------------

Center of mass = (  0.6791, -0.0894,  0.0394)
Calculating the Dipole integrals                  ... done
Transforming integrals                            ... done
Calculating the Linear Momentum integrals         ... done
Transforming integrals                            ... done
Calculating angular momentum integrals            ... done
Transforming integrals                            ... done

-----------------------------------------------------------------------------
         ABSORPTION SPECTRUM VIA TRANSITION ELECTRIC DIPOLE MOMENTS
-----------------------------------------------------------------------------
State   Energy    Wavelength  fosc         T2        TX        TY        TZ  
        (cm-1)      (nm)                 (au**2)    (au)      (au)      (au) 
-----------------------------------------------------------------------------
   1   34619.1    288.9   0.332276107   3.15980   1.48879   0.07567  -0.96829
   2   38669.3    258.6   0.004405180   0.03750   0.01452   0.19059   0.03110
   3   40593.8    246.3   0.683884967   5.54624  -2.16100   0.18999  -0.91664
   4   41307.1    242.1   0.011423177   0.09104   0.29322   0.03255  -0.06326
   5   41621.4    240.3   0.104086773   0.82329  -0.82470  -0.04938   0.37514
   6   42200.3    237.0   0.004777589   0.03727   0.12841  -0.00203  -0.14415
   7   45567.4    219.5   0.157718025   1.13947  -1.06554   0.00255   0.06388
   8   45708.5    218.8   0.340758805   2.45429  -1.56519   0.04883   0.04561
   9   46167.2    216.6   0.000017878   0.00013  -0.01082  -0.00324   0.00010
  10   47508.0    210.5   0.037781669   0.26181  -0.15673   0.12878  -0.46975

-----------------------------------------------------------------------------
         ABSORPTION SPECTRUM VIA TRANSITION VELOCITY DIPOLE MOMENTS
-----------------------------------------------------------------------------
State   Energy    Wavelength   fosc        P2         PX        PY        PZ  
        (cm-1)      (nm)                 (au**2)     (au)      (au)      (au) 
-----------------------------------------------------------------------------
   1   34619.1    288.9   0.096054276   0.02273  -0.14951   0.00123   0.01929
   2   38669.3    258.6   0.000524828   0.00014  -0.00003   0.01160   0.00204
   3   40593.8    246.3   0.297901994   0.08265   0.28380  -0.01513   0.04335
   4   41307.1    242.1   0.008289600   0.00234  -0.04083   0.02522   0.00605
   5   41621.4    240.3   0.064385282   0.01832   0.13482   0.00264  -0.01149
   6   42200.3    237.0   0.000301180   0.00009   0.00071  -0.00194   0.00909
   7   45567.4    219.5   0.067694613   0.02108   0.14161   0.01411  -0.02880
   8   45708.5    218.8   0.133781947   0.04179   0.19887  -0.00882  -0.04655
   9   46167.2    216.6   0.000004948   0.00000   0.00105  -0.00065   0.00018
  10   47508.0    210.5   0.010936521   0.00355   0.04241  -0.01188   0.04014

-------------------------------------------------------------------
                             CD SPECTRUM
-------------------------------------------------------------------
State  Energy     Wavelength     R         MX        MY        MZ   
       (cm-1)       (nm)     (1e40*cgs)   (au)      (au)      (au)  
-------------------------------------------------------------------
   1   34619.1    288.9    -20.18349  -0.00895   0.18017   0.04453
   2   38669.3    258.6      0.41084   0.17152  -0.05084   0.25950
   3   40593.8    246.3     20.69187  -0.03323  -0.45357  -0.06354
   4   41307.1    242.1     54.47807   0.37848   0.05859  -0.04215
   5   41621.4    240.3    -31.74491   0.07259  -0.18565  -0.04435
   6   42200.3    237.0      0.10624  -0.02898  -0.18145  -0.02482
   7   45567.4    219.5    -19.33403   0.04806  -0.14187   0.16531
   8   45708.5    218.8     16.26595  -0.02677  -0.04082  -0.11856
   9   46167.2    216.6     -0.15015   0.02740   0.00625  -0.01872
  10   47508.0    210.5     -5.05502   0.00021  -0.38700  -0.08334

-------------------------------------------------------------------
         CD SPECTRUM VIA TRANSITION VELOCITY DIPOLE MOMENTS        
-------------------------------------------------------------------
State  Energy     Wavelength     R         MX        MY        MZ   
       (cm-1)       (nm)     (1e40*cgs)   (au)      (au)      (au)  
-------------------------------------------------------------------
   1   34619.1    288.9      7.22815  -0.00895   0.18017   0.04453
   2   38669.3    258.6     -0.17365   0.17152  -0.05084   0.25950
   3   40593.8    246.3    -13.56501  -0.03323  -0.45357  -0.06354
   4   41307.1    242.1    -35.65013   0.37848   0.05859  -0.04215
   5   41621.4    240.3     24.37616   0.07259  -0.18565  -0.04435
   6   42200.3    237.0      0.26220  -0.02898  -0.18145  -0.02482
   7   45567.4    219.5      0.09501   0.04806  -0.14187   0.16531
   8   45708.5    218.8      1.25675  -0.02677  -0.04082  -0.11856
   9   46167.2    216.6      0.04812   0.02740   0.00625  -0.01872
  10   47508.0    210.5      2.74799   0.00021  -0.38700  -0.08334

Total run time:     2394.825 sec

           *** ORCA-CIS/TD-DFT FINISHED WITHOUT ERROR ***

Maximum memory used throughout the entire CIS-calculation: 1116.9 MB

-----------------------
CIS/TD-DFT TOTAL ENERGY
-----------------------

    E(SCF)  =  -1047.196088654 Eh
    DE(CIS) =      0.157736083 Eh (Root  1)
    ----------------------------- ---------
    E(tot)  =  -1047.038352571 Eh


-------------------------   --------------------
FINAL SINGLE POINT ENERGY     -1047.038352570547
-------------------------   --------------------


                            ***************************************
                            *     ORCA property calculations      *
                            ***************************************

                                    ---------------------
                                    Active property flags
                                    ---------------------
   (+) Dipole Moment


------------------------------------------------------------------------------
                       ORCA ELECTRIC PROPERTIES CALCULATION
------------------------------------------------------------------------------

Dipole Moment Calculation                       ... on
Quadrupole Moment Calculation                   ... off
Polarizability Calculation                      ... off
GBWName                                         ... m062x-train-18_job2.gbw
Electron density                                ... m062x-train-18_job2.scfp
The origin for moment calculation is the CENTER OF MASS  = ( 0.679058, -0.089450  0.039388)

-------------
DIPOLE MOMENT
-------------
                                X             Y             Z
Electronic contribution:      6.54128      -0.92101       5.17176
Nuclear contribution   :     -7.73748       0.78515      -3.88159
                        -----------------------------------------
Total Dipole Moment    :     -1.19621      -0.13586       1.29018
                        -----------------------------------------
Magnitude (a.u.)       :      1.76463
Magnitude (Debye)      :      4.48534



--------------------
Rotational spectrum 
--------------------
 
Rotational constants in cm-1:     0.037006     0.006987     0.005889 
Rotational constants in MHz :  1109.417757   209.460866   176.533553 

 Dipole components along the rotational axes: 
x,y,z [a.u.] :    -1.219901    -1.273373     0.065476 
x,y,z [Debye]:    -3.100743    -3.236658     0.166426 

 

Timings for individual modules:

Sum of individual times         ...     3172.244 sec (=  52.871 min)
GTO integral calculation        ...        5.617 sec (=   0.094 min)   0.2 %
SCF iterations                  ...      770.972 sec (=  12.850 min)  24.3 %
CIS module                      ...     2395.655 sec (=  39.928 min)  75.5 %



                             ****ORCA TERMINATED NORMALLY****
TOTAL RUN TIME: 0 days 7 hours 23 minutes 25 seconds 802 msec
