
                                 *****************
                                 * O   R   C   A *
                                 *****************

                                            #,                                       
                                            ###                                      
                                            ####                                     
                                            #####                                    
                                            ######                                   
                                           ########,                                 
                                     ,,################,,,,,                         
                               ,,#################################,,                 
                          ,,##########################################,,             
                       ,#########################################, ''#####,          
                    ,#############################################,,   '####,        
                  ,##################################################,,,,####,       
                ,###########''''           ''''###############################       
              ,#####''   ,,,,##########,,,,          '''####'''          '####       
            ,##' ,,,,###########################,,,                        '##       
           ' ,,###''''                  '''############,,,                           
         ,,##''                                '''############,,,,        ,,,,,,###''
      ,#''                                            '''#######################'''  
     '                                                          ''''####''''         
             ,#######,   #######,   ,#######,      ##                                
            ,#'     '#,  ##    ##  ,#'     '#,    #''#        ######   ,####,        
            ##       ##  ##   ,#'  ##            #'  '#       #        #'  '#        
            ##       ##  #######   ##           ,######,      #####,   #    #        
            '#,     ,#'  ##    ##  '#,     ,#' ,#      #,         ##   #,  ,#        
             '#######'   ##     ##  '#######'  #'      '#     #####' # '####'        



                  #######################################################
                  #                        -***-                        #
                  #          Department of theory and spectroscopy      #
                  #    Directorship and core code : Frank Neese         #
                  #        Max Planck Institute fuer Kohlenforschung    #
                  #                Kaiser Wilhelm Platz 1               #
                  #                 D-45470 Muelheim/Ruhr               #
                  #                      Germany                        #
                  #                                                     #
                  #                  All rights reserved                #
                  #                        -***-                        #
                  #######################################################


                         Program Version 5.0.2 -  RELEASE  -


 With contributions from (in alphabetic order):
   Daniel Aravena         : Magnetic Suceptibility
   Michael Atanasov       : Ab Initio Ligand Field Theory (pilot matlab implementation)
   Alexander A. Auer      : GIAO ZORA, VPT2 properties, NMR spectrum
   Ute Becker             : Parallelization
   Giovanni Bistoni       : ED, misc. LED, open-shell LED, HFLD
   Martin Brehm           : Molecular dynamics
   Dmytro Bykov           : SCF Hessian
   Vijay G. Chilkuri      : MRCI spin determinant printing, contributions to CSF-ICE
   Dipayan Datta          : RHF DLPNO-CCSD density
   Achintya Kumar Dutta   : EOM-CC, STEOM-CC
   Dmitry Ganyushin       : Spin-Orbit,Spin-Spin,Magnetic field MRCI
   Miquel Garcia          : C-PCM and meta-GGA Hessian, CC/C-PCM, Gaussian charge scheme
   Yang Guo               : DLPNO-NEVPT2, F12-NEVPT2, CIM, IAO-localization
   Andreas Hansen         : Spin unrestricted coupled pair/coupled cluster methods
   Benjamin Helmich-Paris : MC-RPA, TRAH-SCF, COSX integrals
   Lee Huntington         : MR-EOM, pCC
   Robert Izsak           : Overlap fitted RIJCOSX, COSX-SCS-MP3, EOM
   Marcus Kettner         : VPT2
   Christian Kollmar      : KDIIS, OOCD, Brueckner-CCSD(T), CCSD density, CASPT2, CASPT2-K
   Simone Kossmann        : Meta GGA functionals, TD-DFT gradient, OOMP2, MP2 Hessian
   Martin Krupicka        : Initial AUTO-CI
   Lucas Lang             : DCDCAS
   Marvin Lechner         : AUTO-CI (C++ implementation), FIC-MRCC
   Dagmar Lenk            : GEPOL surface, SMD
   Dimitrios Liakos       : Extrapolation schemes; Compound Job, initial MDCI parallelization
   Dimitrios Manganas     : Further ROCIS development; embedding schemes
   Dimitrios Pantazis     : SARC Basis sets
   Anastasios Papadopoulos: AUTO-CI, single reference methods and gradients
   Taras Petrenko         : DFT Hessian,TD-DFT gradient, ASA, ECA, R-Raman, ABS, FL, XAS/XES, NRVS
   Peter Pinski           : DLPNO-MP2, DLPNO-MP2 Gradient
   Christoph Reimann      : Effective Core Potentials
   Marius Retegan         : Local ZFS, SOC
   Christoph Riplinger    : Optimizer, TS searches, QM/MM, DLPNO-CCSD(T), (RO)-DLPNO pert. Triples
   Tobias Risthaus        : Range-separated hybrids, TD-DFT gradient, RPA, STAB
   Michael Roemelt        : Original ROCIS implementation
   Masaaki Saitow         : Open-shell DLPNO-CCSD energy and density
   Barbara Sandhoefer     : DKH picture change effects
   Avijit Sen             : IP-ROCIS
   Kantharuban Sivalingam : CASSCF convergence, NEVPT2, FIC-MRCI
   Bernardo de Souza      : ESD, SOC TD-DFT
   Georgi Stoychev        : AutoAux, RI-MP2 NMR, DLPNO-MP2 response
   Willem Van den Heuvel  : Paramagnetic NMR
   Boris Wezisla          : Elementary symmetry handling
   Frank Wennmohs         : Technical directorship


 We gratefully acknowledge several colleagues who have allowed us to
 interface, adapt or use parts of their codes:
   Stefan Grimme, W. Hujo, H. Kruse, P. Pracht,  : VdW corrections, initial TS optimization,
                  C. Bannwarth, S. Ehlert          DFT functionals, gCP, sTDA/sTD-DF
   Ed Valeev, F. Pavosevic, A. Kumar             : LibInt (2-el integral package), F12 methods
   Garnet Chan, S. Sharma, J. Yang, R. Olivares  : DMRG
   Ulf Ekstrom                                   : XCFun DFT Library
   Mihaly Kallay                                 : mrcc  (arbitrary order and MRCC methods)
   Jiri Pittner, Ondrej Demel                    : Mk-CCSD
   Frank Weinhold                                : gennbo (NPA and NBO analysis)
   Christopher J. Cramer and Donald G. Truhlar   : smd solvation model
   Lars Goerigk                                  : TD-DFT with DH, B97 family of functionals
   V. Asgeirsson, H. Jonsson                     : NEB implementation
   FAccTs GmbH                                   : IRC, NEB, NEB-TS, DLPNO-Multilevel, CI-OPT
                                                   MM, QMMM, 2- and 3-layer-ONIOM, Crystal-QMMM,
                                                   LR-CPCM, SF, NACMEs, symmetry and pop. for TD-DFT,
                                                   nearIR, NL-DFT gradient (VV10), updates on ESD,
                                                   ML-optimized integration grids
   S Lehtola, MJT Oliveira, MAL Marques          : LibXC Library
   Liviu Ungur et al                             : ANISO software


 Your calculation uses the libint2 library for the computation of 2-el integrals
 For citations please refer to: http://libint.valeyev.net

 Your ORCA version has been built with support for libXC version: 5.1.0
 For citations please refer to: https://tddft.org/programs/libxc/

 This ORCA versions uses:
   CBLAS   interface :  Fast vector & matrix operations
   LAPACKE interface :  Fast linear algebra routines
   SCALAPACK package :  Parallel linear algebra routines
   Shared memory     :  Shared parallel matrices
   BLAS/LAPACK       :  OpenBLAS 0.3.15  USE64BITINT DYNAMIC_ARCH NO_AFFINITY SkylakeX SINGLE_THREADED
        Core in use  :  SkylakeX
   Copyright (c) 2011-2014, The OpenBLAS Project


Your calculation utilizes the atom-pairwise dispersion correction
with the Becke-Johnson damping scheme (D3BJ)
Cite in your paper:
S.Grimme, S.Ehrlich, L.Goerigk, J Comput Chem, (2011), 32, 1456–1465 
S.Grimme, J.Antony, S.Ehrlich and H.Krieg, J.Chem.Phys., 132, (2010), 154104 
   

Your calculation utilizes the SMD solvation module
Please cite in your paper:
A.V. Marenich, C.J. Cramer, D.G. Truhlar J. Phys. Chem. B, 113, (2009), 6378 

================================================================================

----- Orbital basis set information -----
Your calculation utilizes the basis: aug-cc-pVTZ 
    H, B-Ne : Obtained from the ccRepo (grant-hill.group.shef.ac.uk/ccrepo) Feb. 2017
              R. A. Kendall, T. H. Dunning, Jr., R. J. Harrison, J. Chem. Phys. 96, 6796 (1992)
         He : Obtained from the ccRepo (grant-hill.group.shef.ac.uk/ccrepo) Feb. 2017
              D. E. Woon, T. H. Dunning, Jr., J. Chem. Phys. 100, 2975 (1994)
  Li-Be, Na : Obtained from the ccRepo (grant-hill.group.shef.ac.uk/ccrepo) Feb. 2017
              B. P. Prascher, D. E. Woon, K. A. Peterson, T. H. Dunning, Jr., A. K. Wilson, Theor. Chem. Acc. 128, 69 (2011)
         Mg : Obtained from the Peterson Research Group Website (tyr0.chem.wsu.edu/~kipeters) Feb. 2017
              B. P. Prascher, D. E. Woon, K. A. Peterson, T. H. Dunning, Jr., A. K. Wilson, Theor. Chem. Acc. 128, 69 (2011)
      Al-Ar : Obtained from the ccRepo (grant-hill.group.shef.ac.uk/ccrepo) Feb. 2017
              D. E. Woon, T. H. Dunning, Jr., J. Chem. Phys. 98, 1358 (1993)
      Sc-Zn : Obtained from the ccRepo (grant-hill.group.shef.ac.uk/ccrepo) Feb. 2017
              N. B. Balabanov, K. A. Peterson, J. Chem. Phys. 123, 064107 (2005)
              N. B. Balabanov, K. A. Peterson, J. Chem. Phys. 125, 074110 (2006)
      Ga-Kr : Obtained from the ccRepo (grant-hill.group.shef.ac.uk/ccrepo) Feb. 2017
              A. K. Wilson, D. E. Woon, K. A. Peterson, T. H. Dunning, Jr., J. Chem. Phys. 110, 7667 (1999)
     Ag, Au : Obtained from the Peterson Research Group Website (tyr0.chem.wsu.edu/~kipeters) Feb. 2017
              K. A. Peterson, C. Puzzarini, Theor. Chem. Acc. 114, 283 (2005)

The basis set includes element-specific modifications.

Your calculation utilizes the basis: cc-pVTZ 
       H, B-Ne : Obtained from the ccRepo (grant-hill.group.shef.ac.uk/ccrepo) Feb. 2017
                 T. H. Dunning, Jr., J. Chem. Phys. 90, 1007 (1989)
            He : Obtained from the ccRepo (grant-hill.group.shef.ac.uk/ccrepo) Feb. 2017
                 D. E. Woon, T. H. Dunning, Jr., J. Chem. Phys. 100, 2975 (1994)
  Li-Be, Na-Mg : Obtained from the ccRepo (grant-hill.group.shef.ac.uk/ccrepo) Feb. 2017
                 B. P. Prascher, D. E. Woon, K. A. Peterson, T. H. Dunning, Jr., A. K. Wilson, Theor. Chem. Acc. 128, 69 (2011)
         Al-Ar : Obtained from the ccRepo (grant-hill.group.shef.ac.uk/ccrepo) Feb. 2017
                 D. E. Woon, T. H. Dunning, Jr., J. Chem. Phys. 98, 1358 (1993)
            Ca : Obtained from the Peterson Research Group Website (tyr0.chem.wsu.edu/~kipeters) Feb. 2017
                 J. Koput, K. A. Peterson, J. Phys. Chem. 106, 9595 (2002)
         Sc-Zn : Obtained from the ccRepo (grant-hill.group.shef.ac.uk/ccrepo) Feb. 2017
                 N. B. Balabanov, K. A. Peterson, J. Chem. Phys. 123, 064107 (2005)
                 N. B. Balabanov, K. A. Peterson, J. Chem. Phys. 125, 074110 (2006)
         Ga-Kr : Obtained from the ccRepo (grant-hill.group.shef.ac.uk/ccrepo) Feb. 2017
                 A. K. Wilson, D. E. Woon, K. A. Peterson, T. H. Dunning, Jr., J. Chem. Phys. 110, 7667 (1999)
             Y : Obtained from the ccRepo (grant-hill.group.shef.ac.uk/ccrepo) Feb. 2017
                 K. A. Peterson, D. Figgen, M. Dolg, H. Stoll, J. Chem. Phys. 126, 124101 (2007)
        Ag, Au : Obtained from the Peterson Research Group Website (tyr0.chem.wsu.edu/~kipeters) Feb. 2017
                 K. A. Peterson, C. Puzzarini, Theor. Chem. Acc. 114, 283 (2005)

----- AuxJ basis set information -----
Your calculation utilizes the auxiliary basis: aug-cc-pVTZ/JK 
  H, B-F, Al-Cl, Ga-Br : Obtained from the TURBOMOLE 7.0 basis set library

The basis set includes element-specific modifications.

Your calculation utilizes the auxiliary basis: cc-pVTZ/JK 
  H, B-F, Al-Cl, Ga-Br : Obtained from the TURBOMOLE 7.0 basis set library

----- AuxC basis set information -----
Your calculation utilizes the auxiliary basis: aug-cc-pVTZ/C 
  H-He, B-F, Al-Ar, Ga-Kr : Obtained from the EMSL Basis Set Exchange (bse.pnl.gov) Feb. 2017
                            F. Weigend, A. Kohn, C. Hattig, J. Chem. Phys. 116, 3175 (2002)
                   Be, Mg : Obtained from the TURBOMOLE 7.0 basis set library
                            C. Haettig, Phys. Chem. Chem. Phys. 7, 59 (2005)
                       Ne : Obtained from the EMSL Basis Set Exchange (bse.pnl.gov) Feb. 2017
                            C. Haettig, Phys. Chem. Chem. Phys. 7, 59 (2005)
                            F. Weigend, A. Kohn, C. Hattig, J. Chem. Phys. 116, 3175 (2002)
                    Sc-Zn : Obtained from the EMSL Basis Set Exchange (bse.pnl.gov) Feb. 2017
                            J. G. Hill, J. A. Platts, J. Chem. Phys. 128, 044104 (2008)

The basis set includes element-specific modifications.

Your calculation utilizes the auxiliary basis: cc-pVTZ/C 
  Obtained from the EMSL Basis Set Exchange (bse.pnl.gov) Feb. 2017
  H-He, B-F, Al-Ar, Ga-Kr : F. Weigend, A. Kohn, C. Hattig, J. Chem. Phys. 116, 3175 (2002)
             Li-Be, Na-Mg : C. Haettig, Phys. Chem. Chem. Phys. 7, 59 (2005)
                       Ne : C. Haettig, Phys. Chem. Chem. Phys. 7, 59 (2005)
                            F. Weigend, A. Kohn, C. Hattig, J. Chem. Phys. 116, 3175 (2002)
                    Sc-Zn : J. G. Hill, J. A. Platts, J. Chem. Phys. 128, 044104 (2008)

================================================================================
                                        WARNINGS
                       Please study these warnings very carefully!
================================================================================


WARNING: Geometry Optimization
  ===> : Switching off AutoStart
         For restart on a previous wavefunction, please use MOREAD

INFO   : the flag for use of the SHARK integral package has been found!



***************************************
The coordinates will be read from file: 
***************************************


Your calculation utilizes the atom-pairwise dispersion correction
with the Becke-Johnson damping scheme (D3BJ)
Cite in your paper:
S.Grimme, S.Ehrlich, L.Goerigk, J Comput Chem, (2011), 32, 1456–1465 
S.Grimme, J.Antony, S.Ehrlich and H.Krieg, J.Chem.Phys., 132, (2010), 154104 
   

Your calculation utilizes the SMD solvation module
Please cite in your paper:
A.V. Marenich, C.J. Cramer, D.G. Truhlar J. Phys. Chem. B, 113, (2009), 6378 

================================================================================

----- Orbital basis set information -----
Your calculation utilizes the basis: aug-cc-pVTZ 
    H, B-Ne : Obtained from the ccRepo (grant-hill.group.shef.ac.uk/ccrepo) Feb. 2017
              R. A. Kendall, T. H. Dunning, Jr., R. J. Harrison, J. Chem. Phys. 96, 6796 (1992)
         He : Obtained from the ccRepo (grant-hill.group.shef.ac.uk/ccrepo) Feb. 2017
              D. E. Woon, T. H. Dunning, Jr., J. Chem. Phys. 100, 2975 (1994)
  Li-Be, Na : Obtained from the ccRepo (grant-hill.group.shef.ac.uk/ccrepo) Feb. 2017
              B. P. Prascher, D. E. Woon, K. A. Peterson, T. H. Dunning, Jr., A. K. Wilson, Theor. Chem. Acc. 128, 69 (2011)
         Mg : Obtained from the Peterson Research Group Website (tyr0.chem.wsu.edu/~kipeters) Feb. 2017
              B. P. Prascher, D. E. Woon, K. A. Peterson, T. H. Dunning, Jr., A. K. Wilson, Theor. Chem. Acc. 128, 69 (2011)
      Al-Ar : Obtained from the ccRepo (grant-hill.group.shef.ac.uk/ccrepo) Feb. 2017
              D. E. Woon, T. H. Dunning, Jr., J. Chem. Phys. 98, 1358 (1993)
      Sc-Zn : Obtained from the ccRepo (grant-hill.group.shef.ac.uk/ccrepo) Feb. 2017
              N. B. Balabanov, K. A. Peterson, J. Chem. Phys. 123, 064107 (2005)
              N. B. Balabanov, K. A. Peterson, J. Chem. Phys. 125, 074110 (2006)
      Ga-Kr : Obtained from the ccRepo (grant-hill.group.shef.ac.uk/ccrepo) Feb. 2017
              A. K. Wilson, D. E. Woon, K. A. Peterson, T. H. Dunning, Jr., J. Chem. Phys. 110, 7667 (1999)
     Ag, Au : Obtained from the Peterson Research Group Website (tyr0.chem.wsu.edu/~kipeters) Feb. 2017
              K. A. Peterson, C. Puzzarini, Theor. Chem. Acc. 114, 283 (2005)

The basis set includes element-specific modifications.

Your calculation utilizes the basis: cc-pVTZ 
       H, B-Ne : Obtained from the ccRepo (grant-hill.group.shef.ac.uk/ccrepo) Feb. 2017
                 T. H. Dunning, Jr., J. Chem. Phys. 90, 1007 (1989)
            He : Obtained from the ccRepo (grant-hill.group.shef.ac.uk/ccrepo) Feb. 2017
                 D. E. Woon, T. H. Dunning, Jr., J. Chem. Phys. 100, 2975 (1994)
  Li-Be, Na-Mg : Obtained from the ccRepo (grant-hill.group.shef.ac.uk/ccrepo) Feb. 2017
                 B. P. Prascher, D. E. Woon, K. A. Peterson, T. H. Dunning, Jr., A. K. Wilson, Theor. Chem. Acc. 128, 69 (2011)
         Al-Ar : Obtained from the ccRepo (grant-hill.group.shef.ac.uk/ccrepo) Feb. 2017
                 D. E. Woon, T. H. Dunning, Jr., J. Chem. Phys. 98, 1358 (1993)
            Ca : Obtained from the Peterson Research Group Website (tyr0.chem.wsu.edu/~kipeters) Feb. 2017
                 J. Koput, K. A. Peterson, J. Phys. Chem. 106, 9595 (2002)
         Sc-Zn : Obtained from the ccRepo (grant-hill.group.shef.ac.uk/ccrepo) Feb. 2017
                 N. B. Balabanov, K. A. Peterson, J. Chem. Phys. 123, 064107 (2005)
                 N. B. Balabanov, K. A. Peterson, J. Chem. Phys. 125, 074110 (2006)
         Ga-Kr : Obtained from the ccRepo (grant-hill.group.shef.ac.uk/ccrepo) Feb. 2017
                 A. K. Wilson, D. E. Woon, K. A. Peterson, T. H. Dunning, Jr., J. Chem. Phys. 110, 7667 (1999)
             Y : Obtained from the ccRepo (grant-hill.group.shef.ac.uk/ccrepo) Feb. 2017
                 K. A. Peterson, D. Figgen, M. Dolg, H. Stoll, J. Chem. Phys. 126, 124101 (2007)
        Ag, Au : Obtained from the Peterson Research Group Website (tyr0.chem.wsu.edu/~kipeters) Feb. 2017
                 K. A. Peterson, C. Puzzarini, Theor. Chem. Acc. 114, 283 (2005)

----- AuxJ basis set information -----
Your calculation utilizes the auxiliary basis: aug-cc-pVTZ/JK 
  H, B-F, Al-Cl, Ga-Br : Obtained from the TURBOMOLE 7.0 basis set library

The basis set includes element-specific modifications.

Your calculation utilizes the auxiliary basis: cc-pVTZ/JK 
  H, B-F, Al-Cl, Ga-Br : Obtained from the TURBOMOLE 7.0 basis set library

----- AuxC basis set information -----
Your calculation utilizes the auxiliary basis: aug-cc-pVTZ/C 
  H-He, B-F, Al-Ar, Ga-Kr : Obtained from the EMSL Basis Set Exchange (bse.pnl.gov) Feb. 2017
                            F. Weigend, A. Kohn, C. Hattig, J. Chem. Phys. 116, 3175 (2002)
                   Be, Mg : Obtained from the TURBOMOLE 7.0 basis set library
                            C. Haettig, Phys. Chem. Chem. Phys. 7, 59 (2005)
                       Ne : Obtained from the EMSL Basis Set Exchange (bse.pnl.gov) Feb. 2017
                            C. Haettig, Phys. Chem. Chem. Phys. 7, 59 (2005)
                            F. Weigend, A. Kohn, C. Hattig, J. Chem. Phys. 116, 3175 (2002)
                    Sc-Zn : Obtained from the EMSL Basis Set Exchange (bse.pnl.gov) Feb. 2017
                            J. G. Hill, J. A. Platts, J. Chem. Phys. 128, 044104 (2008)

The basis set includes element-specific modifications.

Your calculation utilizes the auxiliary basis: cc-pVTZ/C 
  Obtained from the EMSL Basis Set Exchange (bse.pnl.gov) Feb. 2017
  H-He, B-F, Al-Ar, Ga-Kr : F. Weigend, A. Kohn, C. Hattig, J. Chem. Phys. 116, 3175 (2002)
             Li-Be, Na-Mg : C. Haettig, Phys. Chem. Chem. Phys. 7, 59 (2005)
                       Ne : C. Haettig, Phys. Chem. Chem. Phys. 7, 59 (2005)
                            F. Weigend, A. Kohn, C. Hattig, J. Chem. Phys. 116, 3175 (2002)
                    Sc-Zn : J. G. Hill, J. A. Platts, J. Chem. Phys. 128, 044104 (2008)

================================================================================
                                        WARNINGS
                       Please study these warnings very carefully!
================================================================================

INFO   : Checking CIS options ...
  ===> : (D) CORRECTION FOUND - SETTING MODE=3
  ===> : JK MODE FOUND - ACTIVATING RI-MP2 CODE
  ===> : MP2 AND CIS FOUND - CHECKING
WARNING: CIS(D) and MP2 runs must have the same orbital window
  ===> : adjusting orbital windows

WARNING: No MP2 level density has been requested!
         To caclulate MP2 level properties use
         %mp2 Density relaxed end
         or
         %mp2 Density unrelaxed end
         Otherwise for double-hybrid DFT only the energy is correct!

WARNING: The frozen-core approximation is turned on by default for 
         the MP2 part of double-hybrid DFT.

WARNING:  You are using a Range-Separated Double Hybrid functional with Doubles Correction 
          Changing Mode to AOINTS 


INFO   : the flag for use of the SHARK integral package has been found!

================================================================================
                                       INPUT FILE
================================================================================
NAME = optpbed3-wb2plyp-train-18.inp
|  1> ! pbe0 d3bj aug-cc-PVTZ RIJCOSX Opt
|  2> %maxcore 4000
|  3> %basis
|  4>  AuxJ "aug-cc-PVTZ/JK"
|  5>  AuxC "aug-cc-PVTZ/C"
|  6>  newGTO H "cc-PVTZ" end
|  7>  newAuxJGTO H "cc-PVTZ/JK" end
|  8>  newAuxCGTO H "cc-PVTZ/C" end
|  9> end
| 10> %cpcm
| 11>  SMD true
| 12>  SMDsolvent "ethanol"
| 13> end
| 14> %pal nprocs 4 end
| 15> * xyz 0 1
| 16> C         -4.68160        0.30280       -1.06730
| 17> C         -4.55820        0.00650        0.28040
| 18> C         -3.30890       -0.15020        0.84950
| 19> C         -2.15940       -0.01140        0.07290
| 20> C         -0.82380       -0.16900        0.63620
| 21> C         -0.50840       -0.46110        1.94080
| 22> S          1.18340       -0.55520        2.16840
| 23> C          1.37840       -0.18700        0.45350
| 24> C          2.68340       -0.08810       -0.15860
| 25> C          2.79850        0.20500       -1.51980
| 26> C          4.06540        0.29120       -2.06860
| 27> N          5.17790        0.11120       -1.37550
| 28> C          5.06900       -0.16630       -0.08730
| 29> C          3.85700       -0.27780        0.57150
| 30> N          0.26230       -0.02340       -0.16410
| 31> C         -2.29340        0.28700       -1.28310
| 32> C         -3.54470        0.44250       -1.84640
| 33> H         -5.66040        0.42420       -1.50710
| 34> H         -5.44200       -0.10330        0.89190
| 35> H         -3.22970       -0.38090        1.90090
| 36> H         -1.16210       -0.62500        2.77260
| 37> H          1.91090        0.35700       -2.11140
| 38> H          4.20260        0.51600       -3.11820
| 39> H          6.00300       -0.30580        0.44110
| 40> H          3.81790       -0.50630        1.62610
| 41> H         -1.40130        0.39350       -1.88020
| 42> H         -3.63550        0.67350       -2.89770
| 43> *
| 44> 
| 45> 
| 46> $new_job
| 47> ! wb2plyp aug-cc-PVTZ RIJCOSX SP
| 48> %maxcore 4000
| 49> %basis
| 50>  AuxJ "aug-cc-PVTZ/JK"
| 51>  AuxC "aug-cc-PVTZ/C"
| 52>  newGTO H "cc-PVTZ" end
| 53>  newAuxJGTO H "cc-PVTZ/JK" end
| 54>  newAuxCGTO H "cc-PVTZ/C" end
| 55> end
| 56> %cpcm
| 57>  SMD true
| 58>  SMDsolvent "ethanol"
| 59> end
| 60> %pal nprocs 4 end
| 61> %tddft
| 62>  nroots 10
| 63>  maxdim 7
| 64> end
| 65> * xyzfile 0 1
| 66> 
| 67>                          ****END OF INPUT****
================================================================================


                 $$$$$$$$$$$$$$$$$$$$$$$$$$$$$$$$$$$$$$$$$$$$$$ 
                 $ THERE ARE  2 JOBS TO BE PROCESSED THIS RUN $
                 $$$$$$$$$$$$$$$$$$$$$$$$$$$$$$$$$$$$$$$$$$$$$$ 




                 $$$$$$$$$$$$$$$$  JOB NUMBER  1 $$$$$$$$$$$$$$


                       *****************************
                       * Geometry Optimization Run *
                       *****************************

Geometry optimization settings:
Update method            Update   .... BFGS
Choice of coordinates    CoordSys .... Z-matrix Internals
Initial Hessian          InHess   .... Almoef's Model

Convergence Tolerances:
Energy Change            TolE     ....  5.0000e-06 Eh
Max. Gradient            TolMAXG  ....  3.0000e-04 Eh/bohr
RMS Gradient             TolRMSG  ....  1.0000e-04 Eh/bohr
Max. Displacement        TolMAXD  ....  4.0000e-03 bohr
RMS Displacement         TolRMSD  ....  2.0000e-03 bohr
Strict Convergence                ....  False
------------------------------------------------------------------------------
                        ORCA OPTIMIZATION COORDINATE SETUP
------------------------------------------------------------------------------

The optimization will be done in new redundant internal coordinates
Making redundant internal coordinates   ...  (new redundants) done
Evaluating the initial hessian          ...  (Almloef) done
Evaluating the coordinates              ...  done
Calculating the B-matrix                .... done
Calculating the G-matrix                .... done
Diagonalizing the G-matrix              .... done
Small eigenvalue found = 4.208e-03
Small eigenvalue found = 2.491e-02
Small eigenvalue found = 2.852e-02
The first mode is                       ....   63
The number of degrees of freedom        ....   75

    -----------------------------------------------------------------
                    Redundant Internal Coordinates


    -----------------------------------------------------------------
         Definition                    Initial Value    Approx d2E/dq
    -----------------------------------------------------------------
      1. B(C   1,C   0)                  1.3854         0.635458   
      2. B(C   2,C   1)                  1.3817         0.644068   
      3. B(C   3,C   2)                  1.3942         0.615287   
      4. B(C   4,C   3)                  1.4581         0.486559   
      5. B(C   5,C   4)                  1.3736         0.663593   
      6. B(S   6,C   5)                  1.7096         0.520658   
      7. B(C   7,S   6)                  1.7648         0.425163   
      8. B(C   8,C   7)                  1.4448         0.510851   
      9. B(C   9,C   8)                  1.3971         0.608605   
     10. B(C  10,C   9)                  1.3833         0.640256   
     11. B(N  11,C  10)                  1.3230         0.715650   
     12. B(C  12,N  11)                  1.3222         0.717759   
     13. B(C  13,C  12)                  1.3840         0.638774   
     14. B(C  13,C   8)                  1.3951         0.613147   
     15. B(N  14,C   4)                  1.3569         0.631854   
     16. B(N  14,C   7)                  1.2860         0.819884   
     17. B(C  15,C   3)                  1.3949         0.613659   
     18. B(C  16,C  15)                  1.3810         0.645732   
     19. B(C  16,C   0)                  1.3853         0.635679   
     20. B(H  17,C   0)                  1.0799         0.373695   
     21. B(H  18,C   1)                  1.0803         0.373136   
     22. B(H  19,C   2)                  1.0793         0.374506   
     23. B(H  20,C   5)                  1.0706         0.386771   
     24. B(H  21,C   9)                  1.0775         0.377072   
     25. B(H  22,C  10)                  1.0821         0.370654   
     26. B(H  23,C  12)                  1.0821         0.370652   
     27. B(H  24,C  13)                  1.0798         0.373878   
     28. B(H  25,C  15)                  1.0788         0.375287   
     29. B(H  26,C  16)                  1.0802         0.373297   
     30. A(C   1,C   0,C  16)          119.7074         0.437962   
     31. A(C  16,C   0,H  17)          120.2297         0.356640   
     32. A(C   1,C   0,H  17)          120.0629         0.356619   
     33. A(C   0,C   1,C   2)          120.3618         0.438999   
     34. A(C   0,C   1,H  18)          119.9672         0.356529   
     35. A(C   2,C   1,H  18)          119.6710         0.357345   
     36. A(C   3,C   2,H  19)          120.2252         0.354803   
     37. A(C   1,C   2,H  19)          119.4594         0.357567   
     38. A(C   1,C   2,C   3)          120.3154         0.436453   
     39. A(C   4,C   3,C  15)          119.1224         0.414888   
     40. A(C   2,C   3,C   4)          121.9573         0.415083   
     41. A(C   2,C   3,C  15)          118.9202         0.432670   
     42. A(C   5,C   4,N  14)          113.5274         0.438023   
     43. A(C   3,C   4,C   5)          126.8870         0.420709   
     44. A(C   3,C   4,N  14)          119.5856         0.414351   
     45. A(C   4,C   5,S   6)          111.4301         0.449481   
     46. A(S   6,C   5,H  20)          119.4975         0.364917   
     47. A(C   4,C   5,H  20)          129.0724         0.361368   
     48. A(C   5,S   6,C   7)           88.1945         0.437809   
     49. A(S   6,C   7,C   8)          121.7196         0.413528   
     50. A(C   8,C   7,N  14)          124.8704         0.437938   
     51. A(S   6,C   7,N  14)          113.4100         0.447234   
     52. A(C   9,C   8,C  13)          117.9747         0.431757   
     53. A(C   7,C   8,C  13)          121.9243         0.418439   
     54. A(C   7,C   8,C   9)          120.1009         0.417885   
     55. A(C   8,C   9,C  10)          118.3614         0.435130   
     56. A(C  10,C   9,H  21)          121.8587         0.357622   
     57. A(C   8,C   9,H  21)          119.7799         0.354557   
     58. A(C   9,C  10,N  11)          123.6265         0.445104   
     59. A(N  11,C  10,H  22)          115.4529         0.361150   
     60. A(C   9,C  10,H  22)          120.9206         0.356580   
     61. A(C  10,N  11,C  12)          118.0135         0.451427   
     62. A(N  11,C  12,C  13)          123.5592         0.445154   
     63. A(C  13,C  12,H  23)          120.8660         0.356439   
     64. A(N  11,C  12,H  23)          115.5749         0.361331   
     65. A(C   8,C  13,C  12)          118.4647         0.435531   
     66. A(C  12,C  13,H  24)          120.9092         0.356965   
     67. A(C   8,C  13,H  24)          120.6261         0.354493   
     68. A(C   4,N  14,C   7)          113.4379         0.452125   
     69. A(C   3,C  15,C  16)          120.5067         0.436447   
     70. A(C  16,C  15,H  25)          120.8242         0.357851   
     71. A(C   3,C  15,H  25)          118.6691         0.354769   
     72. A(C   0,C  16,C  15)          120.1884         0.439231   
     73. A(C  15,C  16,H  26)          119.8157         0.357528   
     74. A(C   0,C  16,H  26)          119.9958         0.356576   
     75. D(C   2,C   1,C   0,H  17)    179.9970         0.028029   
     76. D(H  18,C   1,C   0,C  16)    179.9958         0.028029   
     77. D(H  18,C   1,C   0,H  17)      0.0059         0.028029   
     78. D(C   2,C   1,C   0,C  16)     -0.0131         0.028029   
     79. D(H  19,C   2,C   1,C   0)    179.9996         0.028846   
     80. D(C   3,C   2,C   1,H  18)   -179.9969         0.028846   
     81. D(H  19,C   2,C   1,H  18)     -0.0092         0.028846   
     82. D(C   3,C   2,C   1,C   0)      0.0120         0.028846   
     83. D(C  15,C   3,C   2,H  19)   -179.9986         0.026173   
     84. D(C  15,C   3,C   2,C   1)     -0.0110         0.026173   
     85. D(C   4,C   3,C   2,C   1)    179.9952         0.026173   
     86. D(C   4,C   3,C   2,H  19)      0.0076         0.026173   
     87. D(N  14,C   4,C   3,C   2)    179.9991         0.016119   
     88. D(C   5,C   4,C   3,C   2)     -0.0006         0.016119   
     89. D(C   5,C   4,C   3,C  15)   -179.9944         0.016119   
     90. D(N  14,C   4,C   3,C  15)      0.0053         0.016119   
     91. D(H  20,C   5,C   4,N  14)   -179.9935         0.030752   
     92. D(H  20,C   5,C   4,C   3)      0.0063         0.030752   
     93. D(S   6,C   5,C   4,N  14)     -0.0062         0.030752   
     94. D(S   6,C   5,C   4,C   3)    179.9935         0.030752   
     95. D(C   7,S   6,C   5,H  20)    179.9981         0.005534   
     96. D(C   7,S   6,C   5,C   4)      0.0095         0.005534   
     97. D(N  14,C   7,S   6,C   5)     -0.0115         0.004140   
     98. D(C   8,C   7,S   6,C   5)    179.9995         0.004140   
     99. D(C  13,C   8,C   7,N  14)   -179.9942         0.017786   
    100. D(C  13,C   8,C   7,S   6)     -0.0065         0.017786   
    101. D(C   9,C   8,C   7,N  14)      0.0029         0.017786   
    102. D(C   9,C   8,C   7,S   6)    179.9906         0.017786   
    103. D(H  21,C   9,C   8,C   7)     -0.0000         0.025575   
    104. D(C  10,C   9,C   8,C  13)     -0.0060         0.025575   
    105. D(C  10,C   9,C   8,C   7)    179.9968         0.025575   
    106. D(H  21,C   9,C   8,C  13)    179.9972         0.025575   
    107. D(H  22,C  10,C   9,H  21)      0.0006         0.028483   
    108. D(H  22,C  10,C   9,C   8)   -179.9961         0.028483   
    109. D(N  11,C  10,C   9,H  21)   -179.9991         0.028483   
    110. D(N  11,C  10,C   9,C   8)      0.0042         0.028483   
    111. D(C  12,N  11,C  10,H  22)   -179.9982         0.038520   
    112. D(C  12,N  11,C  10,C   9)      0.0015         0.038520   
    113. D(H  23,C  12,N  11,C  10)    179.9987         0.038770   
    114. D(C  13,C  12,N  11,C  10)     -0.0053         0.038770   
    115. D(H  24,C  13,C  12,H  23)     -0.0045         0.028342   
    116. D(C   8,C  13,C  12,H  23)    179.9990         0.028342   
    117. D(C   8,C  13,C  12,N  11)      0.0032         0.028342   
    118. D(H  24,C  13,C   8,C   9)   -179.9939         0.025980   
    119. D(H  24,C  13,C   8,C   7)      0.0033         0.025980   
    120. D(H  24,C  13,C  12,N  11)    179.9997         0.028342   
    121. D(C  12,C  13,C   8,C   9)      0.0026         0.025980   
    122. D(C  12,C  13,C   8,C   7)    179.9998         0.025980   
    123. D(C   4,N  14,C   7,C   8)    179.9988         0.052117   
    124. D(C   4,N  14,C   7,S   6)      0.0103         0.052117   
    125. D(C   7,N  14,C   4,C   5)     -0.0027         0.029374   
    126. D(C   7,N  14,C   4,C   3)    179.9975         0.029374   
    127. D(H  25,C  15,C   3,C   4)     -0.0060         0.026026   
    128. D(H  25,C  15,C   3,C   2)   -179.9999         0.026026   
    129. D(C  16,C  15,C   3,C   4)   -179.9946         0.026026   
    130. D(C  16,C  15,C   3,C   2)      0.0115         0.026026   
    131. D(C   0,C  16,C  15,H  25)    179.9988         0.029006   
    132. D(C   0,C  16,C  15,C   3)     -0.0128         0.029006   
    133. D(H  26,C  16,C   0,H  17)     -0.0097         0.028050   
    134. D(H  26,C  16,C   0,C   1)   -179.9995         0.028050   
    135. D(C  15,C  16,C   0,H  17)   -179.9966         0.028050   
    136. D(H  26,C  16,C  15,C   3)   -179.9998         0.029006   
    137. D(C  15,C  16,C   0,C   1)      0.0135         0.028050   
    138. D(H  26,C  16,C  15,H  25)      0.0118         0.029006   
    -----------------------------------------------------------------

Number of atoms                         .... 27
Number of degrees of freedom            .... 138

         *************************************************************
         *                GEOMETRY OPTIMIZATION CYCLE   1            *
         *************************************************************
---------------------------------
CARTESIAN COORDINATES (ANGSTROEM)
---------------------------------
  C     -4.681600    0.302800   -1.067300
  C     -4.558200    0.006500    0.280400
  C     -3.308900   -0.150200    0.849500
  C     -2.159400   -0.011400    0.072900
  C     -0.823800   -0.169000    0.636200
  C     -0.508400   -0.461100    1.940800
  S      1.183400   -0.555200    2.168400
  C      1.378400   -0.187000    0.453500
  C      2.683400   -0.088100   -0.158600
  C      2.798500    0.205000   -1.519800
  C      4.065400    0.291200   -2.068600
  N      5.177900    0.111200   -1.375500
  C      5.069000   -0.166300   -0.087300
  C      3.857000   -0.277800    0.571500
  N      0.262300   -0.023400   -0.164100
  C     -2.293400    0.287000   -1.283100
  C     -3.544700    0.442500   -1.846400
  H     -5.660400    0.424200   -1.507100
  H     -5.442000   -0.103300    0.891900
  H     -3.229700   -0.380900    1.900900
  H     -1.162100   -0.625000    2.772600
  H      1.910900    0.357000   -2.111400
  H      4.202600    0.516000   -3.118200
  H      6.003000   -0.305800    0.441100
  H      3.817900   -0.506300    1.626100
  H     -1.401300    0.393500   -1.880200
  H     -3.635500    0.673500   -2.897700

----------------------------
CARTESIAN COORDINATES (A.U.)
----------------------------
  NO LB      ZA    FRAG     MASS         X           Y           Z
   0 C     6.0000    0    12.011   -8.846942    0.572209   -2.016905
   1 C     6.0000    0    12.011   -8.613750    0.012283    0.529879
   2 C     6.0000    0    12.011   -6.252915   -0.283837    1.605322
   3 C     6.0000    0    12.011   -4.080675   -0.021543    0.137761
   4 C     6.0000    0    12.011   -1.556756   -0.319364    1.202244
   5 C     6.0000    0    12.011   -0.960737   -0.871353    3.667580
   6 S    16.0000    0    32.060    2.236302   -1.049176    4.097682
   7 C     6.0000    0    12.011    2.604799   -0.353379    0.856991
   8 C     6.0000    0    12.011    5.070891   -0.166485   -0.299711
   9 C     6.0000    0    12.011    5.288399    0.387394   -2.872006
  10 C     6.0000    0    12.011    7.682493    0.550288   -3.909087
  11 N     7.0000    0    14.007    9.784813    0.210138   -2.599318
  12 C     6.0000    0    12.011    9.579022   -0.314261   -0.164973
  13 C     6.0000    0    12.011    7.288674   -0.524966    1.079978
  14 N     7.0000    0    14.007    0.495675   -0.044220   -0.310104
  15 C     6.0000    0    12.011   -4.333898    0.542351   -2.424708
  16 C     6.0000    0    12.011   -6.698512    0.836204   -3.489190
  17 H     1.0000    0     1.008  -10.696606    0.801622   -2.848006
  18 H     1.0000    0     1.008  -10.283890   -0.195209    1.685447
  19 H     1.0000    0     1.008   -6.103248   -0.719797    3.592180
  20 H     1.0000    0     1.008   -2.196051   -1.181079    5.239455
  21 H     1.0000    0     1.008    3.611078    0.674632   -3.989968
  22 H     1.0000    0     1.008    7.941763    0.975099   -5.892544
  23 H     1.0000    0     1.008   11.344026   -0.577878    0.833558
  24 H     1.0000    0     1.008    7.214785   -0.956768    3.072884
  25 H     1.0000    0     1.008   -2.648073    0.743607   -3.553063
  26 H     1.0000    0     1.008   -6.870099    1.272731   -5.475859

--------------------------------
INTERNAL COORDINATES (ANGSTROEM)
--------------------------------
 C      0   0   0     0.000000000000     0.00000000     0.00000000
 C      1   0   0     1.385394001719     0.00000000     0.00000000
 C      2   1   0     1.381730867427   120.36179973     0.00000000
 C      3   2   1     1.394174755904   120.31544401     0.00000000
 C      4   3   2     1.458071332274   121.95731359   179.99518805
 C      5   4   3     1.373601372306   126.88703238     0.00000000
 S      6   5   4     1.709632653525   111.43007385   179.99348189
 C      7   6   5     1.764788443412    88.19454327     0.00000000
 C      8   7   6     1.444808852409   121.71960256   179.99950853
 C      9   8   7     1.397147472531   120.10093506   179.99060322
 C     10   9   8     1.383346482267   118.36140249   179.99676490
 N     11  10   9     1.323043408207   123.62648524     0.00000000
 C     12  11  10     1.322242300034   118.01350855     0.00000000
 C     13  12  11     1.383977488979   123.55916244     0.00000000
 N      8   7   6     1.286030299021   113.41003410     0.00000000
 C      4   3   2     1.394895895757   118.92024181     0.00000000
 C     16   4   3     1.381028178568   120.50666584     0.00000000
 H      1   2   3     1.079912700175   120.06285426   179.99703172
 H      2   1   3     1.080319735078   119.96716722   180.00886002
 H      3   2   1     1.079322514358   119.45936976   179.99962003
 H      6   5   4     1.070550391154   129.07237794     0.00000000
 H     10   9   8     1.077463836980   119.77990277     0.00000000
 H     11  10   9     1.082136331522   120.92058035   180.00387381
 H     13  12  11     1.082138073445   115.57487920   179.99870370
 H     14  13  12     1.079778782900   120.90923904   179.99971271
 H     16   4   3     1.078755333706   118.66913276   180.00007994
 H     17  16   4     1.080202448618   119.81571511   180.00016259

---------------------------
INTERNAL COORDINATES (A.U.)
---------------------------
 C      0   0   0     0.000000000000     0.00000000     0.00000000
 C      1   0   0     2.618015250827     0.00000000     0.00000000
 C      2   1   0     2.611092930222   120.36179973     0.00000000
 C      3   2   1     2.634608471485   120.31544401     0.00000000
 C      4   3   2     2.755355501720   121.95731359   179.99518805
 C      5   4   3     2.595730410836   126.88703238     0.00000000
 S      6   5   4     3.230737504772   111.43007385   179.99348189
 C      7   6   5     3.334966842358    88.19454327     0.00000000
 C      8   7   6     2.730293046918   121.71960256   179.99950853
 C      9   8   7     2.640226091784   120.10093506   179.99060322
 C     10   9   8     2.614145999808   118.36140249   179.99676490
 N     11  10   9     2.500189704801   123.62648524     0.00000000
 C     12  11  10     2.498675829751   118.01350855     0.00000000
 C     13  12  11     2.615338429682   123.55916244     0.00000000
 N      8   7   6     2.430245065075   113.41003410     0.00000000
 C      4   3   2     2.635971228312   118.92024181     0.00000000
 C     16   4   3     2.609765040722   120.50666584     0.00000000
 H      1   2   3     2.040739251875   120.06285426   179.99703172
 H      2   1   3     2.041508436369   119.96716722   180.00886002
 H      3   2   1     2.039623962312   119.45936976   179.99962003
 H      6   5   4     2.023047051843   129.07237794     0.00000000
 H     10   9   8     2.036111571096   119.77990277     0.00000000
 H     11  10   9     2.044941306143   120.92058035   180.00387381
 H     13  12  11     2.044944597901   115.57487920   179.99870370
 H     14  13  12     2.040486184899   120.90923904   179.99971271
 H     16   4   3     2.038552146212   118.66913276   180.00007994
 H     17  16   4     2.041286797079   119.81571511   180.00016259

---------------------
BASIS SET INFORMATION
---------------------
There are 4 groups of distinct atoms

 Group   1 Type C   : 19s6p3d2f contracted to 5s4p3d2f pattern {88111/3111/111/11}
 Group   2 Type S   : 42s17p3d2f contracted to 6s5p3d2f pattern {131313111/77111/111/11}
 Group   3 Type N   : 19s6p3d2f contracted to 5s4p3d2f pattern {88111/3111/111/11}
 Group   4 Type H   : 5s2p1d contracted to 3s2p1d pattern {311/11/1}

Atom   0C    basis set group =>   1
Atom   1C    basis set group =>   1
Atom   2C    basis set group =>   1
Atom   3C    basis set group =>   1
Atom   4C    basis set group =>   1
Atom   5C    basis set group =>   1
Atom   6S    basis set group =>   2
Atom   7C    basis set group =>   1
Atom   8C    basis set group =>   1
Atom   9C    basis set group =>   1
Atom  10C    basis set group =>   1
Atom  11N    basis set group =>   3
Atom  12C    basis set group =>   1
Atom  13C    basis set group =>   1
Atom  14N    basis set group =>   3
Atom  15C    basis set group =>   1
Atom  16C    basis set group =>   1
Atom  17H    basis set group =>   4
Atom  18H    basis set group =>   4
Atom  19H    basis set group =>   4
Atom  20H    basis set group =>   4
Atom  21H    basis set group =>   4
Atom  22H    basis set group =>   4
Atom  23H    basis set group =>   4
Atom  24H    basis set group =>   4
Atom  25H    basis set group =>   4
Atom  26H    basis set group =>   4
---------------------------------
AUXILIARY/J BASIS SET INFORMATION
---------------------------------
There are 4 groups of distinct atoms

 Group   1 Type C   : 10s7p5d2f1g contracted to 10s7p5d2f1g pattern {1111111111/1111111/11111/11/1}
 Group   2 Type S   : 13s11p9d3f1g contracted to 13s11p9d3f1g pattern {1111111111111/11111111111/111111111/111/1}
 Group   3 Type N   : 10s7p5d2f1g contracted to 10s7p5d2f1g pattern {1111111111/1111111/11111/11/1}
 Group   4 Type H   : 4s3p2d1f contracted to 4s3p2d1f pattern {1111/111/11/1}

Atom   0C    basis set group =>   1
Atom   1C    basis set group =>   1
Atom   2C    basis set group =>   1
Atom   3C    basis set group =>   1
Atom   4C    basis set group =>   1
Atom   5C    basis set group =>   1
Atom   6S    basis set group =>   2
Atom   7C    basis set group =>   1
Atom   8C    basis set group =>   1
Atom   9C    basis set group =>   1
Atom  10C    basis set group =>   1
Atom  11N    basis set group =>   3
Atom  12C    basis set group =>   1
Atom  13C    basis set group =>   1
Atom  14N    basis set group =>   3
Atom  15C    basis set group =>   1
Atom  16C    basis set group =>   1
Atom  17H    basis set group =>   4
Atom  18H    basis set group =>   4
Atom  19H    basis set group =>   4
Atom  20H    basis set group =>   4
Atom  21H    basis set group =>   4
Atom  22H    basis set group =>   4
Atom  23H    basis set group =>   4
Atom  24H    basis set group =>   4
Atom  25H    basis set group =>   4
Atom  26H    basis set group =>   4
---------------------------------
AUXILIARY/C BASIS SET INFORMATION
---------------------------------
There are 4 groups of distinct atoms

 Group   1 Type C   : 9s7p6d4f2g contracted to 9s7p6d4f2g pattern {111111111/1111111/111111/1111/11}
 Group   2 Type S   : 11s9p8d6f3g contracted to 11s9p8d6f3g pattern {11111111111/111111111/11111111/111111/111}
 Group   3 Type N   : 9s7p6d4f2g contracted to 9s7p6d4f2g pattern {111111111/1111111/111111/1111/11}
 Group   4 Type H   : 4s3p2d1f contracted to 4s3p2d1f pattern {1111/111/11/1}

Atom   0C    basis set group =>   1
Atom   1C    basis set group =>   1
Atom   2C    basis set group =>   1
Atom   3C    basis set group =>   1
Atom   4C    basis set group =>   1
Atom   5C    basis set group =>   1
Atom   6S    basis set group =>   2
Atom   7C    basis set group =>   1
Atom   8C    basis set group =>   1
Atom   9C    basis set group =>   1
Atom  10C    basis set group =>   1
Atom  11N    basis set group =>   3
Atom  12C    basis set group =>   1
Atom  13C    basis set group =>   1
Atom  14N    basis set group =>   3
Atom  15C    basis set group =>   1
Atom  16C    basis set group =>   1
Atom  17H    basis set group =>   4
Atom  18H    basis set group =>   4
Atom  19H    basis set group =>   4
Atom  20H    basis set group =>   4
Atom  21H    basis set group =>   4
Atom  22H    basis set group =>   4
Atom  23H    basis set group =>   4
Atom  24H    basis set group =>   4
Atom  25H    basis set group =>   4
Atom  26H    basis set group =>   4


           ************************************************************
           *        Program running with 4 parallel MPI-processes     *
           *              working on a common directory               *
           ************************************************************
------------------------------------------------------------------------------
                           ORCA GTO INTEGRAL CALCULATION
                           -- RI-GTO INTEGRALS CHOSEN --
------------------------------------------------------------------------------
------------------------------------------------------------------------------
                   ___                                                        
                  /   \      - P O W E R E D   B Y -                         
                 /     \                                                     
                 |  |  |   _    _      __       _____    __    __             
                 |  |  |  | |  | |    /  \     |  _  \  |  |  /  |          
                  \  \/   | |  | |   /    \    | | | |  |  | /  /          
                 / \  \   | |__| |  /  /\  \   | |_| |  |  |/  /          
                |  |  |   |  __  | /  /__\  \  |    /   |      \           
                |  |  |   | |  | | |   __   |  |    \   |  |\   \          
                \     /   | |  | | |  |  |  |  | |\  \  |  | \   \       
                 \___/    |_|  |_| |__|  |__|  |_| \__\ |__|  \__/        
                                                                              
                      - O R C A' S   B I G   F R I E N D -                    
                                      &                                       
                       - I N T E G R A L  F E E D E R -                       
                                                                              
 v1 FN, 2020, v2 2021                                                         
------------------------------------------------------------------------------


Reading SHARK input file optpbed3-wb2plyp-train-18.SHARKINP.tmp ... ok
----------------------
SHARK INTEGRAL PACKAGE
----------------------

Number of atoms                             ...     27
Number of basis functions                   ...   1047
Number of shells                            ...    411
Maximum angular momentum                    ...      3
Integral batch strategy                     ... SHARK/LIBINT Hybrid
RI-J (if used) integral strategy            ... SPLIT-RIJ (Revised 2003 algorithm where possible)
Printlevel                                  ...      1
Contraction scheme used                     ... PARTIAL GENERAL contraction
Coulomb Range Separation                    ... NOT USED
Exchange Range Separation                   ... NOT USED
Finite Nucleus Model                        ... NOT USED
Auxiliary Coulomb fitting basis             ... AVAILABLE
   # of basis functions in Aux-J            ...   1685
   # of shells in Aux-J                     ...    537
   Maximum angular momentum in Aux-J        ...      4
Auxiliary J/K fitting basis                 ... NOT available
Auxiliary Correlation fitting basis         ... AVAILABLE
   # of basis functions in Aux-C            ...   2143
   # of shells in Aux-C                     ...    585
   Maximum angular momentum in Aux-C        ...      4
Auxiliary 'external' fitting basis          ... NOT available
Integral threshold                          ...     2.500000e-11
Primitive cut-off                           ...     2.500000e-12
Primitive pair pre-selection threshold      ...     2.500000e-12

Calculating pre-screening integrals         ... done (  0.2 sec) Dimension = 411
Calculating pre-screening integrals (ORCA)  ... done (  0.4 sec) Dimension = 300
Organizing shell pair data                  ... done (  0.8 sec)
Shell pair information
Total number of shell pairs                 ...     84666
Shell pairs after pre-screening             ...     55752
Total number of primitive shell pairs       ...    107494
Primitive shell pairs kept                  ...     64721
          la=0 lb=0:  12544 shell pairs
          la=1 lb=0:  14355 shell pairs
          la=1 lb=1:   3580 shell pairs
          la=2 lb=0:   9299 shell pairs
          la=2 lb=1:   4585 shell pairs
          la=2 lb=2:   1520 shell pairs
          la=3 lb=0:   5135 shell pairs
          la=3 lb=1:   2565 shell pairs
          la=3 lb=2:   1684 shell pairs
          la=3 lb=3:    485 shell pairs

Calculating one electron integrals          ... done (  0.2 sec)
Calculating RI/J V-Matrix + Cholesky decomp.... done (  0.2 sec)
Calculating RI/C V-Matrix + Cholesky decomp.... done (  0.4 sec)
Calculating Nuclear repulsion               ... done (  0.0 sec) ENN=   1151.906837398700 Eh

SHARK setup successfully completed in   3.1 seconds

Maximum memory used throughout the entire GTOINT-calculation: 91.4 MB


           ************************************************************
           *        Program running with 4 parallel MPI-processes     *
           *              working on a common directory               *
           ************************************************************
-------------------------------------------------------------------------------
                                 ORCA SCF
-------------------------------------------------------------------------------

------------
SCF SETTINGS
------------
Hamiltonian:
 Density Functional     Method          .... DFT(GTOs)
 Exchange Functional    Exchange        .... PBE
   PBE kappa parameter   XKappa         ....  0.804000
   PBE mue parameter    XMuePBE         ....  0.219520
 Correlation Functional Correlation     .... PBE
   PBE beta parameter  CBetaPBE         ....  0.066725
 LDA part of GGA corr.  LDAOpt          .... PW91-LDA
 Gradients option       PostSCFGGA      .... off
 Hybrid DFT is turned on
   Fraction HF Exchange ScalHFX         ....  0.250000
   Scaling of DF-GGA-X  ScalDFX         ....  0.750000
   Scaling of DF-GGA-C  ScalDFC         ....  1.000000
   Scaling of DF-LDA-C  ScalLDAC        ....  1.000000
   Perturbative correction              ....  0.000000
   Density functional embedding theory  .... OFF
   NL short-range parameter             ....  6.900000
 RI-approximation to the Coulomb term is turned on
   Number of AuxJ basis functions       .... 1685
   RIJ-COSX (HFX calculated with COS-X)).... on


General Settings:
 Integral files         IntName         .... optpbed3-wb2plyp-train-18
 Hartree-Fock type      HFTyp           .... RHF
 Total Charge           Charge          ....    0
 Multiplicity           Mult            ....    1
 Number of Electrons    NEL             ....  124
 Basis Dimension        Dim             ....  926
 Nuclear Repulsion      ENuc            ....   1151.9068373987 Eh

Convergence Acceleration:
 DIIS                   CNVDIIS         .... on
   Start iteration      DIISMaxIt       ....    12
   Startup error        DIISStart       ....  0.200000
   # of expansion vecs  DIISMaxEq       ....     5
   Bias factor          DIISBfac        ....   1.050
   Max. coefficient     DIISMaxC        ....  10.000
 Trust-Rad. Augm. Hess. CNVTRAH         .... auto
   Auto Start mean grad. ratio tolernc. ....  1.125000
   Auto Start start iteration           ....    20
   Auto Start num. interpolation iter.  ....    10
   Max. Number of Micro iterations      ....    16
   Max. Number of Macro iterations      .... Maxiter - #DIIS iter
   Number of Davidson start vectors     ....     2
   Converg. threshold I  (grad. norm)   ....   1.000e-05
   Converg. threshold II (energy diff.) ....   1.000e-08
   Grad. Scal. Fac. for Micro threshold ....   0.100
   Minimum threshold for Micro iter.    ....   0.010
   NR start threshold (gradient norm)   ....   0.001
   Initial trust radius                 ....   0.400
   Minimum AH scaling param. (alpha)    ....   1.000
   Maximum AH scaling param. (alpha)    .... 1000.000
   Orbital update algorithm             .... Taylor
   White noise on init. David. guess    .... on
   Maximum white noise                  ....   0.010
   Quad. conv. algorithm                .... NR
 SOSCF                  CNVSOSCF        .... on
   Start iteration      SOSCFMaxIt      ....   150
   Startup grad/error   SOSCFStart      ....  0.003300
 Level Shifting         CNVShift        .... on
   Level shift para.    LevelShift      ....    0.2500
   Turn off err/grad.   ShiftErr        ....    0.0010
 Zerner damping         CNVZerner       .... off
 Static damping         CNVDamp         .... on
   Fraction old density DampFac         ....    0.7000
   Max. Damping (<1)    DampMax         ....    0.9800
   Min. Damping (>=0)   DampMin         ....    0.0000
   Turn off err/grad.   DampErr         ....    0.1000
 Fernandez-Rico         CNVRico         .... off

SCF Procedure:
 Maximum # iterations   MaxIter         ....   125
 SCF integral mode      SCFMode         .... Direct
   Integral package                     .... SHARK and LIBINT hybrid scheme
 Reset frequency        DirectResetFreq ....    20
 Integral Threshold     Thresh          ....  2.500e-11 Eh
 Primitive CutOff       TCut            ....  2.500e-12 Eh

Convergence Tolerance:
 Convergence Check Mode ConvCheckMode   .... Total+1el-Energy
 Convergence forced     ConvForced      .... 0
 Energy Change          TolE            ....  1.000e-08 Eh
 1-El. energy change                    ....  1.000e-05 Eh
 Orbital Gradient       TolG            ....  1.000e-05
 Orbital Rotation angle TolX            ....  1.000e-05
 DIIS Error             TolErr          ....  5.000e-07


Diagonalization of the overlap matrix:
Smallest eigenvalue                        ... 9.352e-07
Time for diagonalization                   ...    0.305 sec
Threshold for overlap eigenvalues          ... 1.000e-08
Number of eigenvalues below threshold      ... 0
Time for construction of square roots      ...    0.175 sec
Total time needed                          ...    0.485 sec

Time for model grid setup =    0.462 sec

------------------------------
INITIAL GUESS: MODEL POTENTIAL
------------------------------
Loading Hartree-Fock densities                     ... done
Calculating cut-offs                               ... done
Initializing the effective Hamiltonian             ... done
Setting up the integral package (SHARK)            ... done
Starting the Coulomb interaction                   ... done (   1.8 sec)
Reading the grid                                   ... done
Mapping shells                                     ... done
Starting the XC term evaluation                    ... done (   1.9 sec)
  promolecular density results
     # of electrons  =    123.993612902
     EX              =   -112.600003577
     EC              =     -4.252583548
     EX+EC           =   -116.852587125
Transforming the Hamiltonian                       ... done (   0.2 sec)
Diagonalizing the Hamiltonian                      ... done (   0.3 sec)
Back transforming the eigenvectors                 ... done (   0.1 sec)
Now organizing SCF variables                       ... done
                      ------------------
                      INITIAL GUESS DONE (   4.8 sec)
                      ------------------
-------------------
DFT GRID GENERATION
-------------------

General Integration Accuracy     IntAcc      ... 4.388
Radial Grid Type                 RadialGrid  ... OptM3 with GC (2021)
Angular Grid (max. ang.)         AngularGrid ... 4 (Lebedev-302)
Angular grid pruning method      GridPruning ... 4 (adaptive)
Weight generation scheme         WeightScheme... Becke
Basis function cutoff            BFCut       ... 1.0000e-11
Integration weight cutoff        WCut        ... 1.0000e-14
Angular grids for H and He will be reduced by one unit
Partially contracted basis set               ... off
Rotationally invariant grid construction     ... off

Total number of grid points                  ...   139398
Total number of batches                      ...     2191
Average number of points per batch           ...       63
Average number of grid points per atom       ...     5163
Time for grid setup =    1.873 sec

--------------------
COSX GRID GENERATION
--------------------

GRIDX 1
-------
General Integration Accuracy     IntAcc      ... 3.816
Radial Grid Type                 RadialGrid  ... OptM3 with GC (2021)
Angular Grid (max. ang.)         AngularGrid ... 1 (Lebedev-50)
Angular grid pruning method      GridPruning ... 4 (adaptive)
Weight generation scheme         WeightScheme... Becke
Basis function cutoff            BFCut       ... 1.0000e-11
Integration weight cutoff        WCut        ... 1.0000e-14
Angular grids for H and He will be reduced by one unit
Partially contracted basis set               ... on
Rotationally invariant grid construction     ... off

Total number of grid points                  ...    17701
Total number of batches                      ...      294
Average number of points per batch           ...       60
Average number of grid points per atom       ...      656
UseSFitting                                  ... on

GRIDX 2
-------
General Integration Accuracy     IntAcc      ... 4.020
Radial Grid Type                 RadialGrid  ... OptM3 with GC (2021)
Angular Grid (max. ang.)         AngularGrid ... 2 (Lebedev-110)
Angular grid pruning method      GridPruning ... 4 (adaptive)
Weight generation scheme         WeightScheme... Becke
Basis function cutoff            BFCut       ... 1.0000e-11
Integration weight cutoff        WCut        ... 1.0000e-14
Angular grids for H and He will be reduced by one unit
Partially contracted basis set               ... on
Rotationally invariant grid construction     ... off

Total number of grid points                  ...    42522
Total number of batches                      ...      676
Average number of points per batch           ...       62
Average number of grid points per atom       ...     1575
UseSFitting                                  ... on

GRIDX 3
-------
General Integration Accuracy     IntAcc      ... 4.338
Radial Grid Type                 RadialGrid  ... OptM3 with GC (2021)
Angular Grid (max. ang.)         AngularGrid ... 3 (Lebedev-194)
Angular grid pruning method      GridPruning ... 4 (adaptive)
Weight generation scheme         WeightScheme... Becke
Basis function cutoff            BFCut       ... 1.0000e-11
Integration weight cutoff        WCut        ... 1.0000e-14
Angular grids for H and He will be reduced by one unit
Partially contracted basis set               ... on
Rotationally invariant grid construction     ... off

Total number of grid points                  ...    92404
Total number of batches                      ...     1459
Average number of points per batch           ...       63
Average number of grid points per atom       ...     3422
UseSFitting                                  ... on

Time for X-Grid setup             =    4.966 sec


--------------------
CPCM SOLVATION MODEL
--------------------
CPCM parameters:
  Epsilon                                         ...      24.8520
  Refrac                                          ...       1.3611
  Rsolv                                           ...       1.3000
  Surface type                                    ... GAUSSIAN VDW
  Epsilon function type                           ...         CPCM
Solvent:                                     ... ETHANOL
SMD-CDS solvent descriptors:
  Soln                                       ...    1.3611
  Soln25                                     ...    1.3593
  Sola                                       ...    0.3700
  Solb                                       ...    0.4800
  Solg                                       ...   31.6200
  Solc                                       ...    0.0000
  Solh                                       ...    0.0000
Radii:
 Radius for C  used is    3.4960 Bohr (=   1.8500 Ang.)
 Radius for S  used is    4.7054 Bohr (=   2.4900 Ang.)
 Radius for N  used is    3.5716 Bohr (=   1.8900 Ang.)
 Radius for H  used is    2.2677 Bohr (=   1.2000 Ang.)
Calculating surface                               ...        done! (  0.0s)
GEPOL surface points                              ...         1544
GEPOL Volume                                      ...    1722.1956
GEPOL Surface-area                                ...     932.7786
Calculating surface distance matrix               ...        done! (  0.0s)
Performing Cholesky decomposition & store         ...        done! (  0.1s)
Overall time for CPCM initialization              ...                 0.2s
 re-compute Schwartz prescreening matrix in partically contracted basis (1) ...done (   0.214 sec)
--------------
SCF ITERATIONS
--------------
ITER       Energy         Delta-E        Max-DP      RMS-DP      [F,P]     Damp
               ***  Starting incremental Fock matrix formation  ***
  0  -1046.1762349614   0.000000000000 0.36444317  0.00122015  0.2211330 0.7000
  1  -1046.3487559483  -0.172520986921 0.25979418  0.00089939  0.1019693 0.7000
                               ***Turning on DIIS***
  2  -1046.4224182309  -0.073662282636 0.52693217  0.00190121  0.0381126 0.0000
  3  -1046.5282692603  -0.105851029401 0.08386662  0.00042469  0.0476218 0.0000
  4  -1046.5574264386  -0.029157178305 0.01847389  0.00015185  0.0099397 0.0000
  5  -1046.5587364284  -0.001309989797 0.00774857  0.00005375  0.0069528 0.0000
                      *** Initiating the SOSCF procedure ***
                           *** Shutting down DIIS ***
                      *** Re-Reading the Fockian *** 
                      *** Removing any level shift *** 
ITER      Energy       Delta-E        Grad      Rot      Max-DP    RMS-DP
  6  -1046.55889624  -0.0001598119  0.000432  0.000432  0.008910  0.000033
               *** Restarting incremental Fock matrix formation ***
  7  -1046.55889199   0.0000042461  0.000279  0.001757  0.030504  0.000477
  8  -1046.55889686  -0.0000048692  0.000105  0.000737  0.008920  0.000138
  9  -1046.55889729  -0.0000004271  0.000104  0.000247  0.008158  0.000125
 10  -1046.55889782  -0.0000005332  0.000021  0.000090  0.006686  0.000027
 11  -1046.55889778   0.0000000441  0.000029  0.000083  0.006033  0.000023
 12  -1046.55889781  -0.0000000306  0.000003  0.000013  0.006992  0.000028
 13  -1046.55889786  -0.0000000458  0.000003  0.000005  0.004937  0.000021
                  ***Gradient check signals convergence***
              ***Rediagonalizing the Fockian in SOSCF/NRSCF***

               *****************************************************
               *                     SUCCESS                       *
               *           SCF CONVERGED AFTER  14 CYCLES          *
               *****************************************************

Old exchange energy                            =    -28.616624251 Eh
New exchange energy                            =    -28.616604517 Eh
Exchange energy change after final integration =      0.000019734 Eh
Total energy after final integration           =  -1046.558878092 Eh
Final COS-X integration done in                =    98.744 sec

SMD CDS free energy correction energy :                -1.63987     Kcal/mol
Total Energy after SMD CDS correction =             -1046.561491389 Eh

----------------
TOTAL SCF ENERGY
----------------

Total Energy       :        -1046.56149139 Eh          -28478.38599 eV

Components:
Nuclear Repulsion  :         1151.90683740 Eh           31344.97859 eV
Electronic Energy  :        -2198.46832879 Eh          -59823.36459 eV
One Electron Energy:        -3714.28892847 Eh         -101070.94009 eV
Two Electron Energy:         1515.82059968 Eh           41247.57550 eV
Max COSX asymmetry :            0.00002997 Eh               0.00082 eV
CPCM Dielectric    :           -0.01850205 Eh              -0.50347 eV
SMD CDS (Gcds)     :           -0.00261330 Eh              -0.07111 eV

Virial components:
Potential Energy   :        -2088.56984247 Eh          -56832.87474 eV
Kinetic Energy     :         1042.00835109 Eh           28354.48875 eV
Virial Ratio       :            2.00436958


DFT components:
N(Alpha)           :       62.000080591502 electrons
N(Beta)            :       62.000080591502 electrons
N(Total)           :      124.000161183004 electrons
E(X)               :      -85.587292927547 Eh       
E(C)               :       -4.255366377622 Eh       
E(XC)              :      -89.842659305170 Eh       
DFET-embed. en.    :        0.000000000000 Eh       
CPCM Solvation Model Properties:
Surface-charge          :           -0.05029402
Charge-correction       :            0.00019403 Eh               0.00528 eV
Free-energy (cav+disp)  :           -0.00261330 Eh              -0.07111 eV

---------------
SCF CONVERGENCE
---------------

  Last Energy change         ...    2.9710e-08  Tolerance :   1.0000e-08
  Last MAX-Density change    ...    3.7748e-15  Tolerance :   1.0000e-07
  Last RMS-Density change    ...    1.6537e-17  Tolerance :   5.0000e-09
  Last Orbital Gradient      ...    1.7537e-06  Tolerance :   1.0000e-05
  Last Orbital Rotation      ...    3.0381e-06  Tolerance :   1.0000e-05

             **** THE GBW FILE WAS UPDATED (optpbed3-wb2plyp-train-18.gbw) ****
             **** DENSITY optpbed3-wb2plyp-train-18.scfp WAS UPDATED ****
             **** ENERGY FILE WAS UPDATED (optpbed3-wb2plyp-train-18.en.tmp) ****
             **** THE GBW FILE WAS UPDATED (optpbed3-wb2plyp-train-18.gbw) ****
             **** DENSITY optpbed3-wb2plyp-train-18.scfp WAS UPDATED ****
----------------
ORBITAL ENERGIES
----------------

  NO   OCC          E(Eh)            E(eV) 
   0   2.0000     -89.097394     -2424.4633 
   1   2.0000     -14.397912      -391.7871 
   2   2.0000     -14.390063      -391.5735 
   3   2.0000     -10.306547      -280.4554 
   4   2.0000     -10.274721      -279.5894 
   5   2.0000     -10.268124      -279.4099 
   6   2.0000     -10.264685      -279.3163 
   7   2.0000     -10.263684      -279.2890 
   8   2.0000     -10.262796      -279.2649 
   9   2.0000     -10.244930      -278.7787 
  10   2.0000     -10.243245      -278.7329 
  11   2.0000     -10.239753      -278.6379 
  12   2.0000     -10.230273      -278.3799 
  13   2.0000     -10.228311      -278.3265 
  14   2.0000     -10.227892      -278.3151 
  15   2.0000     -10.227217      -278.2967 
  16   2.0000     -10.226900      -278.2881 
  17   2.0000      -8.054348      -219.1700 
  18   2.0000      -5.990793      -163.0178 
  19   2.0000      -5.987393      -162.9252 
  20   2.0000      -5.985644      -162.8776 
  21   2.0000      -1.016953       -27.6727 
  22   2.0000      -0.985301       -26.8114 
  23   2.0000      -0.895167       -24.3587 
  24   2.0000      -0.861843       -23.4519 
  25   2.0000      -0.835335       -22.7306 
  26   2.0000      -0.806957       -21.9584 
  27   2.0000      -0.793824       -21.6011 
  28   2.0000      -0.774946       -21.0873 
  29   2.0000      -0.747665       -20.3450 
  30   2.0000      -0.676102       -18.3977 
  31   2.0000      -0.668045       -18.1784 
  32   2.0000      -0.643831       -17.5195 
  33   2.0000      -0.625447       -17.0193 
  34   2.0000      -0.599963       -16.3258 
  35   2.0000      -0.579352       -15.7650 
  36   2.0000      -0.551780       -15.0147 
  37   2.0000      -0.532306       -14.4848 
  38   2.0000      -0.509224       -13.8567 
  39   2.0000      -0.491692       -13.3796 
  40   2.0000      -0.486391       -13.2354 
  41   2.0000      -0.467560       -12.7229 
  42   2.0000      -0.462082       -12.5739 
  43   2.0000      -0.461225       -12.5506 
  44   2.0000      -0.446555       -12.1514 
  45   2.0000      -0.436216       -11.8700 
  46   2.0000      -0.434926       -11.8349 
  47   2.0000      -0.427413       -11.6305 
  48   2.0000      -0.418381       -11.3847 
  49   2.0000      -0.397449       -10.8151 
  50   2.0000      -0.395725       -10.7682 
  51   2.0000      -0.376822       -10.2539 
  52   2.0000      -0.360650        -9.8138 
  53   2.0000      -0.352329        -9.5874 
  54   2.0000      -0.339122        -9.2280 
  55   2.0000      -0.316801        -8.6206 
  56   2.0000      -0.301935        -8.2161 
  57   2.0000      -0.286475        -7.7954 
  58   2.0000      -0.283012        -7.7012 
  59   2.0000      -0.282362        -7.6835 
  60   2.0000      -0.272787        -7.4229 
  61   2.0000      -0.233390        -6.3509 
  62   0.0000      -0.074379        -2.0240 
  63   0.0000      -0.041002        -1.1157 
  64   0.0000      -0.019418        -0.5284 
  65   0.0000      -0.010080        -0.2743 
  66   0.0000       0.003029         0.0824 
  67   0.0000       0.009866         0.2685 
  68   0.0000       0.014934         0.4064 
  69   0.0000       0.019940         0.5426 
  70   0.0000       0.021414         0.5827 
  71   0.0000       0.026611         0.7241 
  72   0.0000       0.030588         0.8323 
  73   0.0000       0.034837         0.9480 
  74   0.0000       0.040587         1.1044 
  75   0.0000       0.043483         1.1832 
  76   0.0000       0.048149         1.3102 
  77   0.0000       0.049259         1.3404 
  78   0.0000       0.051496         1.4013 
  79   0.0000       0.055974         1.5231 
  80   0.0000       0.064789         1.7630 
  81   0.0000       0.066204         1.8015 
  82   0.0000       0.067602         1.8396 
  83   0.0000       0.069767         1.8985 
  84   0.0000       0.071163         1.9364 
  85   0.0000       0.078349         2.1320 
  86   0.0000       0.089075         2.4239 
  87   0.0000       0.092606         2.5199 
  88   0.0000       0.094810         2.5799 
  89   0.0000       0.096753         2.6328 
  90   0.0000       0.098295         2.6747 
  91   0.0000       0.104147         2.8340 
  92   0.0000       0.104980         2.8566 
  93   0.0000       0.110052         2.9947 
  94   0.0000       0.115484         3.1425 
  95   0.0000       0.119315         3.2467 
  96   0.0000       0.124127         3.3777 
  97   0.0000       0.126353         3.4382 
  98   0.0000       0.127427         3.4675 
  99   0.0000       0.131066         3.5665 
 100   0.0000       0.131231         3.5710 
 101   0.0000       0.133699         3.6381 
 102   0.0000       0.135934         3.6990 
 103   0.0000       0.140782         3.8309 
 104   0.0000       0.144240         3.9250 
 105   0.0000       0.146887         3.9970 
 106   0.0000       0.151794         4.1305 
 107   0.0000       0.153600         4.1797 
 108   0.0000       0.153823         4.1857 
 109   0.0000       0.154774         4.2116 
 110   0.0000       0.157543         4.2870 
 111   0.0000       0.158261         4.3065 
 112   0.0000       0.161641         4.3985 
 113   0.0000       0.164279         4.4703 
 114   0.0000       0.167632         4.5615 
 115   0.0000       0.169105         4.6016 
 116   0.0000       0.173312         4.7161 
 117   0.0000       0.175406         4.7730 
 118   0.0000       0.176798         4.8109 
 119   0.0000       0.179396         4.8816 
 120   0.0000       0.185037         5.0351 
 121   0.0000       0.186262         5.0685 
 122   0.0000       0.188524         5.1300 
 123   0.0000       0.190730         5.1900 
 124   0.0000       0.195129         5.3097 
 125   0.0000       0.195831         5.3288 
 126   0.0000       0.198724         5.4075 
 127   0.0000       0.200498         5.4558 
 128   0.0000       0.203094         5.5265 
 129   0.0000       0.206512         5.6195 
 130   0.0000       0.216729         5.8975 
 131   0.0000       0.221048         6.0150 
 132   0.0000       0.224734         6.1153 
 133   0.0000       0.227096         6.1796 
 134   0.0000       0.227431         6.1887 
 135   0.0000       0.230601         6.2750 
 136   0.0000       0.235929         6.4200 
 137   0.0000       0.238620         6.4932 
 138   0.0000       0.242819         6.6074 
 139   0.0000       0.246023         6.6946 
 140   0.0000       0.251329         6.8390 
 141   0.0000       0.254077         6.9138 
 142   0.0000       0.257327         7.0022 
 143   0.0000       0.260648         7.0926 
 144   0.0000       0.261063         7.1039 
 145   0.0000       0.263704         7.1757 
 146   0.0000       0.267397         7.2763 
 147   0.0000       0.270252         7.3539 
 148   0.0000       0.275040         7.4842 
 149   0.0000       0.279422         7.6035 
 150   0.0000       0.281539         7.6611 
 151   0.0000       0.284194         7.7333 
 152   0.0000       0.286214         7.7883 
 153   0.0000       0.292917         7.9707 
 154   0.0000       0.294065         8.0019 
 155   0.0000       0.298845         8.1320 
 156   0.0000       0.299221         8.1422 
 157   0.0000       0.304039         8.2733 
 158   0.0000       0.310883         8.4596 
 159   0.0000       0.312356         8.4996 
 160   0.0000       0.318999         8.6804 
 161   0.0000       0.321326         8.7437 
 162   0.0000       0.328096         8.9280 
 163   0.0000       0.330055         8.9812 
 164   0.0000       0.331364         9.0169 
 165   0.0000       0.333922         9.0865 
 166   0.0000       0.334372         9.0987 
 167   0.0000       0.337194         9.1755 
 168   0.0000       0.338242         9.2040 
 169   0.0000       0.345054         9.3894 
 170   0.0000       0.345235         9.3943 
 171   0.0000       0.356574         9.7029 
 172   0.0000       0.356824         9.7097 
 173   0.0000       0.357974         9.7410 
 174   0.0000       0.361620         9.8402 
 175   0.0000       0.368147        10.0178 
 176   0.0000       0.375905        10.2289 
 177   0.0000       0.376172        10.2362 
 178   0.0000       0.380747        10.3606 
 179   0.0000       0.384439        10.4611 
 180   0.0000       0.391938        10.6652 
 181   0.0000       0.391971        10.6661 
 182   0.0000       0.394355        10.7309 
 183   0.0000       0.397211        10.8087 
 184   0.0000       0.401913        10.9366 
 185   0.0000       0.402299        10.9471 
 186   0.0000       0.402519        10.9531 
 187   0.0000       0.407705        11.0942 
 188   0.0000       0.411087        11.1862 
 189   0.0000       0.411457        11.1963 
 190   0.0000       0.415848        11.3158 
 191   0.0000       0.418683        11.3929 
 192   0.0000       0.420371        11.4389 
 193   0.0000       0.425230        11.5711 
 194   0.0000       0.426258        11.5991 
 195   0.0000       0.430539        11.7155 
 196   0.0000       0.433473        11.7954 
 197   0.0000       0.437098        11.8940 
 198   0.0000       0.440556        11.9881 
 199   0.0000       0.441169        12.0048 
 200   0.0000       0.443682        12.0732 
 201   0.0000       0.451190        12.2775 
 202   0.0000       0.453938        12.3523 
 203   0.0000       0.454906        12.3786 
 204   0.0000       0.456392        12.4191 
 205   0.0000       0.462291        12.5796 
 206   0.0000       0.468563        12.7502 
 207   0.0000       0.471799        12.8383 
 208   0.0000       0.477179        12.9847 
 209   0.0000       0.477373        12.9900 
 210   0.0000       0.481826        13.1111 
 211   0.0000       0.489891        13.3306 
 212   0.0000       0.493282        13.4229 
 213   0.0000       0.496531        13.5113 
 214   0.0000       0.500151        13.6098 
 215   0.0000       0.501252        13.6398 
 216   0.0000       0.504549        13.7295 
 217   0.0000       0.507637        13.8135 
 218   0.0000       0.511373        13.9152 
 219   0.0000       0.513242        13.9660 
 220   0.0000       0.517079        14.0704 
 221   0.0000       0.522366        14.2143 
 222   0.0000       0.527937        14.3659 
 223   0.0000       0.529554        14.4099 
 224   0.0000       0.536171        14.5900 
 225   0.0000       0.538719        14.6593 
 226   0.0000       0.545545        14.8450 
 227   0.0000       0.548360        14.9216 
 228   0.0000       0.556867        15.1531 
 229   0.0000       0.557356        15.1664 
 230   0.0000       0.561765        15.2864 
 231   0.0000       0.575903        15.6711 
[...]
   Size of expansion space: 50
   Lowest Energy          :     0.167533586917
   Maximum Energy change  :     0.009436701332 (vector 5)
   Maximum residual norm  :     0.000961322796

                       ****Iteration    3****
   Time for densities:            0.176
   Time for RI-J (Direct):       10.623
   Time for K (COSX):            37.834
   Time for XC-Integration:      16.325
   Time for LR-CPCM terms:        9.133
   Time for Sigma-Completion:     0.102
   Size of expansion space: 60
   Lowest Energy          :     0.167186812890
   Maximum Energy change  :     0.006869338224 (vector 6)
   Maximum residual norm  :     0.000812252166

                       ****Iteration    4****
   Time for densities:            0.165
   Time for RI-J (Direct):       10.503
   Time for K (COSX):            37.775
   Time for XC-Integration:      16.620
   Time for LR-CPCM terms:        9.218
   Time for Sigma-Completion:     0.125
   Size of expansion space: 70
   Lowest Energy          :     0.167137323343
   Maximum Energy change  :     0.001901274825 (vector 6)
   Maximum residual norm  :     0.000338209634
   Rebuilding the expansion space

                       ****Iteration    5****
   Time for densities:            0.340
   Time for RI-J (Direct):       12.838
   Time for K (COSX):            67.162
   Time for XC-Integration:      32.005
   Time for LR-CPCM terms:       14.349
   Time for Sigma-Completion:     0.261
   Size of expansion space: 20
   Lowest Energy          :     0.167131307401
   Maximum Energy change  :     0.000578541243 (vector 8)
   Maximum residual norm  :     0.000165860327

                       ****Iteration    6****
   Time for densities:            0.193
   Time for RI-J (Direct):       10.727
   Time for K (COSX):            39.272
   Time for XC-Integration:      17.302
   Time for LR-CPCM terms:        9.208
   Time for Sigma-Completion:     0.138
   Size of expansion space: 30
   Lowest Energy          :     0.167129688563
   Maximum Energy change  :     0.009255633245 (vector 7)
   Maximum residual norm  :     0.003955949668

                       ****Iteration    7****
   Time for densities:            0.189
   Time for RI-J (Direct):       10.712
   Time for K (COSX):            39.286
   Time for XC-Integration:      17.047
   Time for LR-CPCM terms:        9.272
   Time for Sigma-Completion:     0.135
   Size of expansion space: 40
   Lowest Energy          :     0.167129385326
   Maximum Energy change  :     0.009414966791 (vector 8)
   Maximum residual norm  :     0.003297367452

                       ****Iteration    8****
   Time for densities:            0.188
   Time for RI-J (Direct):       10.762
   Time for K (COSX):            39.515
   Time for XC-Integration:      17.332
   Time for LR-CPCM terms:        9.289
   Time for Sigma-Completion:     0.117
   Size of expansion space: 50
   Lowest Energy          :     0.167129342922
   Maximum Energy change  :     0.005129125562 (vector 5)
   Maximum residual norm  :     0.000539551444

                       ****Iteration    9****
   Time for densities:            0.190
   Time for RI-J (Direct):       10.714
   Time for K (COSX):            39.329
   Time for XC-Integration:      17.234
   Time for LR-CPCM terms:        9.343
   Time for Sigma-Completion:     0.115
   Size of expansion space: 60
   Lowest Energy          :     0.167129338308
   Maximum Energy change  :     0.001141994773 (vector 4)
   Maximum residual norm  :     0.000155490973

                       ****Iteration   10****
   Time for densities:            0.189
   Time for RI-J (Direct):       10.738
   Time for K (COSX):            39.686
   Time for XC-Integration:      17.389
   Time for LR-CPCM terms:        9.305
   Time for Sigma-Completion:     0.116
   Size of expansion space: 70
   Lowest Energy          :     0.167129337791
   Maximum Energy change  :     0.000326825619 (vector 9)
   Maximum residual norm  :     0.000054619334
   Rebuilding the expansion space

                       ****Iteration   11****
   Time for densities:            0.383
   Time for RI-J (Direct):       13.007
   Time for K (COSX):            71.375
   Time for XC-Integration:      32.959
   Time for LR-CPCM terms:       14.313
   Time for Sigma-Completion:     0.222
   Size of expansion space: 20
   Lowest Energy          :     0.167129359613
   Maximum Energy change  :     0.000083512418 (vector 9)
   Maximum residual norm  :     0.000016965022

                       ****Iteration   12****
   Time for densities:            0.188
   Time for RI-J (Direct):       10.820
   Time for K (COSX):            39.412
   Time for XC-Integration:      17.851
   Time for LR-CPCM terms:        9.337
   Time for Sigma-Completion:     0.117
   Size of expansion space: 30
   Lowest Energy          :     0.167129359603
   Maximum Energy change  :     0.000040621559 (vector 9)
   Maximum residual norm  :     0.000006414056

                       ****Iteration   13****
   Time for densities:            0.195
   Time for RI-J (Direct):       10.792
   Time for K (COSX):            39.998
   Time for XC-Integration:      17.992
   Time for LR-CPCM terms:        9.361
   Time for Sigma-Completion:     0.119
   Size of expansion space: 40
   Lowest Energy          :     0.167129359602
   Maximum Energy change  :     0.000012408355 (vector 9)
   Maximum residual norm  :     0.000002006691

                       ****Iteration   14****
   Time for densities:            0.193
   Time for RI-J (Direct):       10.768
   Time for K (COSX):            38.628
   Time for XC-Integration:      17.538
   Time for LR-CPCM terms:        9.333
   Time for Sigma-Completion:     0.109
   Size of expansion space: 50
   Lowest Energy          :     0.167129359601
   Maximum Energy change  :     0.000004175617 (vector 9)
   Maximum residual norm  :     0.000000711214

      *** CONVERGENCE OF RESIDUAL NORM REACHED ***

Storing the converged CI vectors               ... optpbed3-wb2plyp-train-18_job2.cis1

                 *** DAVIDSON DONE ***

Total time for solving the CIS problem:  1356.827sec

------------------
DOUBLES CORRECTION (Double precision version)
------------------

The (D) correction will be scaled by  0.2700
Doing v(i,a)*T(i,a) terms (RI)                    ... ok
Doing u(i,j,a,b) terms for state   0              ... ok
Doing u(i,j,a,b) terms for state   1              ... ok
Doing u(i,j,a,b) terms for state   2              ... ok
Doing u(i,j,a,b) terms for state   3              ... ok
Doing u(i,j,a,b) terms for state   4              ... ok
Doing u(i,j,a,b) terms for state   5              ... ok
Doing u(i,j,a,b) terms for state   6              ... ok
Doing u(i,j,a,b) terms for state   7              ... ok
Doing u(i,j,a,b) terms for state   8              ... ok
Doing u(i,j,a,b) terms for state   9              ... ok

Contributions to the (D) correction(s) (in eV)

STATE  Final   Init.   Total   v(ext)   v(int)  v(3)    u
       omega   omega     (D)                             
-----------------------------------------------------------------------------
   0   4.383   4.548  -0.165   0.507   0.838  -0.053  -1.457
   1   5.123   5.214  -0.090   0.429   0.828  -0.048  -1.300
   2   5.136   5.403  -0.266   0.504   0.796  -0.045  -1.521
   3   5.238   5.504  -0.266   0.415   0.795  -0.028  -1.448
   4   5.124   5.539  -0.415   0.546   0.646  -0.027  -1.580
   5   5.322   5.710  -0.388   0.553   0.680  -0.026  -1.596
   6   5.862   5.926  -0.064   0.069   0.833  -0.003  -0.963
   7   5.816   6.071  -0.256   0.491   0.799  -0.045  -1.500
   8   6.164   6.296  -0.132   0.223   0.803  -0.011  -1.147
   9   6.461   6.522  -0.061   0.381   0.787  -0.057  -1.172

(D)-timings
 V(i,a)*T(i,a) terms           ...   205.275 sec
 U(i,j,a,b) 3-internal         ...     8.584 sec
 U(i,j,a,b) 3-external         ...   196.401 sec
 U(i,j,a,b) pair terms         ...   181.641 sec
 Total measured time           ...  1251.920 sec

 Time for (ab|v) I/O           ...    63.414 sec


------------------------------------
TD-DFT/TDA EXCITED STATES (SINGLETS)
------------------------------------

the weight of the individual excitations are printed if larger than 1.0e-02

STATE  1:  E=   0.161078 au      4.383 eV    35352.6 cm**-1 <S**2> =   0.000000
    58a ->  62a  :     0.073709 (c= -0.27149326)
    59a ->  62a  :     0.016010 (c=  0.12653179)
    61a ->  62a  :     0.796185 (c=  0.89229200)
    61a ->  85a  :     0.010791 (c=  0.10388164)

STATE  2:  E=   0.188273 au      5.123 eV    41321.2 cm**-1 <S**2> =   0.000000
    58a ->  62a  :     0.020665 (c=  0.14375263)
    60a ->  75a  :     0.017670 (c=  0.13293033)
    61a ->  65a  :     0.771129 (c=  0.87813931)
    61a ->  66a  :     0.016000 (c= -0.12649125)
    61a ->  69a  :     0.031470 (c= -0.17739843)
    61a ->  72a  :     0.010887 (c= -0.10434087)

STATE  3:  E=   0.188754 au      5.136 eV    41426.7 cm**-1 <S**2> =   0.000000
    54a ->  72a  :     0.028153 (c= -0.16778825)
    58a ->  62a  :     0.075430 (c=  0.27464440)
    58a ->  65a  :     0.028551 (c= -0.16897048)
    58a ->  72a  :     0.017326 (c= -0.13162676)
    58a ->  74a  :     0.012837 (c= -0.11330165)
    59a ->  62a  :     0.624295 (c=  0.79012320)
    59a ->  65a  :     0.014930 (c= -0.12218744)
    59a ->  72a  :     0.021165 (c=  0.14548224)
    59a ->  85a  :     0.014303 (c= -0.11959616)
    61a ->  72a  :     0.051393 (c=  0.22669934)

STATE  4:  E=   0.192477 au      5.238 eV    42243.8 cm**-1 <S**2> =   0.000000
    58a ->  62a  :     0.048696 (c=  0.22067280)
    58a ->  75a  :     0.039816 (c=  0.19954053)
    60a ->  62a  :     0.029502 (c= -0.17176262)
    60a ->  65a  :     0.328648 (c= -0.57327844)
    60a ->  69a  :     0.014913 (c=  0.12211913)
    60a ->  72a  :     0.028426 (c=  0.16860134)
    60a ->  82a  :     0.010021 (c= -0.10010491)
    61a ->  72a  :     0.031215 (c= -0.17667702)
    61a ->  73a  :     0.044199 (c=  0.21023509)
    61a ->  74a  :     0.031419 (c=  0.17725273)
    61a ->  75a  :     0.206076 (c=  0.45395548)

STATE  5:  E=   0.188307 au      5.124 eV    41328.7 cm**-1 <S**2> =   0.000000
    57a ->  62a  :     0.690366 (c=  0.83088275)
    57a ->  65a  :     0.046191 (c= -0.21492073)
    57a ->  69a  :     0.011446 (c=  0.10698822)
    57a ->  72a  :     0.010136 (c=  0.10068006)
    57a ->  74a  :     0.012087 (c= -0.10993952)
    57a ->  85a  :     0.044188 (c= -0.21020897)
    57a ->  88a  :     0.032342 (c= -0.17983922)
    57a ->  95a  :     0.019188 (c=  0.13852233)
    57a -> 131a  :     0.010138 (c= -0.10068662)

STATE  6:  E=   0.195571 au      5.322 eV    42922.8 cm**-1 <S**2> =   0.000000
    55a ->  62a  :     0.796065 (c=  0.89222480)
    55a ->  69a  :     0.013491 (c=  0.11614939)
    55a ->  85a  :     0.042205 (c=  0.20543916)
    55a ->  91a  :     0.012375 (c=  0.11124180)
    55a ->  95a  :     0.011938 (c= -0.10926073)

STATE  7:  E=   0.215418 au      5.862 eV    47278.7 cm**-1 <S**2> =   0.000000
    61a ->  63a  :     0.081946 (c=  0.28626251)
    61a ->  64a  :     0.491053 (c=  0.70075184)
    61a ->  66a  :     0.013318 (c= -0.11540502)
    61a ->  67a  :     0.066405 (c= -0.25769264)
    61a ->  70a  :     0.013626 (c=  0.11672921)
    61a ->  71a  :     0.011966 (c= -0.10939126)
    61a ->  73a  :     0.080950 (c=  0.28451634)
    61a ->  76a  :     0.013178 (c=  0.11479637)
    61a ->  83a  :     0.025852 (c=  0.16078610)
    61a ->  89a  :     0.016146 (c=  0.12706532)
    61a ->  90a  :     0.014631 (c=  0.12095866)

STATE  8:  E=   0.213723 au      5.816 eV    46906.7 cm**-1 <S**2> =   0.000000
    54a ->  62a  :     0.018278 (c= -0.13519558)
    54a ->  65a  :     0.017850 (c=  0.13360456)
    56a ->  62a  :     0.205825 (c= -0.45367914)
    58a ->  62a  :     0.395971 (c= -0.62926195)
    58a ->  65a  :     0.013228 (c= -0.11501223)
    59a ->  62a  :     0.071390 (c=  0.26718999)
    59a ->  72a  :     0.038987 (c= -0.19745153)
    60a ->  62a  :     0.019574 (c=  0.13990629)
    60a ->  65a  :     0.028621 (c= -0.16917834)
    61a ->  62a  :     0.036938 (c= -0.19219391)

STATE  9:  E=   0.226537 au      6.164 eV    49719.1 cm**-1 <S**2> =   0.000000
    56a ->  83a  :     0.015750 (c=  0.12549910)
    56a ->  89a  :     0.012997 (c=  0.11400540)
    56a ->  90a  :     0.014948 (c=  0.12226094)
    61a ->  63a  :     0.014480 (c= -0.12033165)
    61a ->  66a  :     0.015637 (c= -0.12504771)
    61a ->  68a  :     0.021516 (c= -0.14668365)
    61a ->  69a  :     0.019395 (c= -0.13926711)
    61a ->  70a  :     0.187438 (c= -0.43294157)
    61a ->  73a  :     0.031655 (c= -0.17791787)
    61a ->  77a  :     0.074013 (c=  0.27205341)
    61a ->  83a  :     0.079479 (c=  0.28191976)
    61a ->  84a  :     0.018697 (c=  0.13673658)
    61a ->  86a  :     0.048575 (c=  0.22039703)
    61a ->  89a  :     0.070982 (c=  0.26642461)
    61a ->  90a  :     0.082550 (c=  0.28731579)
    61a ->  96a  :     0.023837 (c= -0.15439345)

STATE 10:  E=   0.237433 au      6.461 eV    52110.5 cm**-1 <S**2> =   0.000000
    54a ->  62a  :     0.066462 (c=  0.25780162)
    54a ->  65a  :     0.010083 (c=  0.10041630)
    56a ->  62a  :     0.042926 (c= -0.20718529)
    58a ->  65a  :     0.098639 (c= -0.31406855)
    58a ->  72a  :     0.018894 (c=  0.13745508)
    59a ->  65a  :     0.094050 (c=  0.30667500)
    59a ->  72a  :     0.044330 (c=  0.21054753)
    59a ->  74a  :     0.017125 (c=  0.13086173)
    59a ->  75a  :     0.010447 (c=  0.10221096)
    60a ->  62a  :     0.031841 (c= -0.17844068)
    60a ->  65a  :     0.036887 (c=  0.19206099)
    60a ->  72a  :     0.029035 (c=  0.17039724)
    60a ->  73a  :     0.032269 (c= -0.17963470)
    60a ->  74a  :     0.031159 (c= -0.17651802)
    60a ->  75a  :     0.162467 (c= -0.40307194)
    61a ->  65a  :     0.013583 (c=  0.11654483)
    61a ->  66a  :     0.011241 (c= -0.10602437)
    61a ->  74a  :     0.010981 (c=  0.10478949)
    61a ->  75a  :     0.010130 (c=  0.10064849)
    61a ->  82a  :     0.010470 (c= -0.10232176)
    61a ->  87a  :     0.010940 (c= -0.10459536)
    61a ->  88a  :     0.012181 (c=  0.11036601)


-----------------------------
TD-DFT/TDA-EXCITATION SPECTRA
-----------------------------

Center of mass = (  0.6774, -0.1343,  0.0302)
Calculating the Dipole integrals                  ... done
Transforming integrals                            ... done
Calculating the Linear Momentum integrals         ... done
Transforming integrals                            ... done
Calculating angular momentum integrals            ... done
Transforming integrals                            ... done

-----------------------------------------------------------------------------
         ABSORPTION SPECTRUM VIA TRANSITION ELECTRIC DIPOLE MOMENTS
-----------------------------------------------------------------------------
State   Energy    Wavelength  fosc         T2        TX        TY        TZ  
        (cm-1)      (nm)                 (au**2)    (au)      (au)      (au) 
-----------------------------------------------------------------------------
   1   35352.6    282.9   0.320641701   2.98589   1.30507   0.26084  -1.10211
   2   41321.2    242.0   0.748778143   5.96563  -2.31820   0.24079  -0.73049
   3   41426.7    241.4   0.067222901   0.53421   0.19919   0.21270  -0.67029
   4   42243.8    236.7   0.017601246   0.13717  -0.37017   0.00072   0.01189
   5   41328.7    242.0   0.005966698   0.04753   0.03369   0.20611   0.06256
   6   42922.8    233.0   0.000420391   0.00322  -0.05169   0.02258   0.00652
   7   47278.7    211.5   0.001791198   0.01247   0.08596  -0.04167   0.05785
   8   46906.7    213.2   0.307490916   2.15811   1.46272  -0.09030   0.10193
   9   49719.1    201.1   0.002669107   0.01767   0.04212   0.02285  -0.12400
  10   52110.5    191.9   0.013400956   0.08466  -0.27366   0.04986   0.08536

-----------------------------------------------------------------------------
         ABSORPTION SPECTRUM VIA TRANSITION VELOCITY DIPOLE MOMENTS
-----------------------------------------------------------------------------
State   Energy    Wavelength   fosc        P2         PX        PY        PZ  
        (cm-1)      (nm)                 (au**2)     (au)      (au)      (au) 
-----------------------------------------------------------------------------
   1   35352.6    282.9   0.087545873   0.02115  -0.13640  -0.00986   0.04950
   2   41321.2    242.0   0.394068888   0.11129   0.32942  -0.01855   0.04929
   3   41426.7    241.4   0.017297748   0.00490  -0.06048  -0.00923   0.03397
   4   42243.8    236.7   0.005135802   0.00148   0.03831   0.00132  -0.00367
   5   41328.7    242.0   0.000203218   0.00006  -0.00311   0.00655   0.00220
   6   42922.8    233.0   0.002188933   0.00064   0.00669   0.02394   0.00494
   7   47278.7    211.5   0.001142760   0.00037  -0.01214   0.01475   0.00208
   8   46906.7    213.2   0.126779922   0.04064  -0.19775  -0.00377   0.03904
   9   49719.1    201.1   0.000699012   0.00024  -0.00166   0.00707   0.01359
  10   52110.5    191.9   0.013644576   0.00486   0.06847  -0.01300  -0.00165

-------------------------------------------------------------------
                             CD SPECTRUM
-------------------------------------------------------------------
State  Energy     Wavelength     R         MX        MY        MZ   
       (cm-1)       (nm)     (1e40*cgs)   (au)      (au)      (au)  
-------------------------------------------------------------------
   1   35352.6    282.9     11.69690   0.00661   0.11340   0.01215
   2   41321.2    242.0    -23.20354   0.00950  -0.48738  -0.12343
   3   41426.7    241.4      2.71098   0.00548   0.17616   0.04895
   4   42243.8    236.7     -1.93936   0.01223   0.10818   0.02818
   5   41328.7    242.0      3.39470   0.22076  -0.09628   0.31342
   6   42922.8    233.0    -10.08168   0.40395   0.00050  -0.07903
   7   47278.7    211.5     10.02746   0.05662  -0.05108   0.24674
   8   46906.7    213.2     -2.46467  -0.00634  -0.05164  -0.00609
   9   49719.1    201.1      0.52483   0.11245  -0.14497   0.00250
  10   52110.5    191.9    -13.03501   0.01307  -0.24056  -0.14148

-------------------------------------------------------------------
         CD SPECTRUM VIA TRANSITION VELOCITY DIPOLE MOMENTS        
-------------------------------------------------------------------
State  Energy     Wavelength     R         MX        MY        MZ   
       (cm-1)       (nm)     (1e40*cgs)   (au)      (au)      (au)  
-------------------------------------------------------------------
   1   35352.6    282.9     -4.15222   0.00661   0.11340   0.01215
   2   41321.2    242.0     15.24371   0.00950  -0.48738  -0.12343
   3   41426.7    241.4     -0.73356   0.00548   0.17616   0.04895
   4   42243.8    236.7      1.24395   0.01223   0.10818   0.02818
   5   41328.7    242.0     -1.57214   0.22076  -0.09628   0.31342
   6   42922.8    233.0      5.60367   0.40395   0.00050  -0.07903
   7   47278.7    211.5     -2.02756   0.05662  -0.05108   0.24674
   8   46906.7    213.2      2.66996  -0.00634  -0.05164  -0.00609
   9   49719.1    201.1     -2.44960   0.11245  -0.14497   0.00250
  10   52110.5    191.9      8.45189   0.01307  -0.24056  -0.14148

Total run time:     2617.700 sec

           *** ORCA-CIS/TD-DFT FINISHED WITHOUT ERROR ***

Maximum memory used throughout the entire CIS-calculation: 1308.7 MB

-----------------------
CIS/TD-DFT TOTAL ENERGY
-----------------------

    E(SCF)  =  -1045.128956906 Eh
    DE(CIS) =      0.161078241 Eh (Root  1)
    ----------------------------- ---------
    E(tot)  =  -1044.967878666 Eh

  Warning: (DFTVDWD): Non-parameterized functional used for dispersion correction ! 

  Warning: (D3BJ): Non-parameterized functional used for dispersion correction !

Please define all necessary parameters (s6, s8, a1, and a2) in the %method block!
[file orca_tools/Tool-Misc/qcdftvdw.cpp, line 36127]: ERROR in DFT dispersion correction!

