
                                 *****************
                                 * O   R   C   A *
                                 *****************

                                            #,                                       
                                            ###                                      
                                            ####                                     
                                            #####                                    
                                            ######                                   
                                           ########,                                 
                                     ,,################,,,,,                         
                               ,,#################################,,                 
                          ,,##########################################,,             
                       ,#########################################, ''#####,          
                    ,#############################################,,   '####,        
                  ,##################################################,,,,####,       
                ,###########''''           ''''###############################       
              ,#####''   ,,,,##########,,,,          '''####'''          '####       
            ,##' ,,,,###########################,,,                        '##       
           ' ,,###''''                  '''############,,,                           
         ,,##''                                '''############,,,,        ,,,,,,###''
      ,#''                                            '''#######################'''  
     '                                                          ''''####''''         
             ,#######,   #######,   ,#######,      ##                                
            ,#'     '#,  ##    ##  ,#'     '#,    #''#        ######   ,####,        
            ##       ##  ##   ,#'  ##            #'  '#       #        #'  '#        
            ##       ##  #######   ##           ,######,      #####,   #    #        
            '#,     ,#'  ##    ##  '#,     ,#' ,#      #,         ##   #,  ,#        
             '#######'   ##     ##  '#######'  #'      '#     #####' # '####'        



                  #######################################################
                  #                        -***-                        #
                  #          Department of theory and spectroscopy      #
                  #    Directorship and core code : Frank Neese         #
                  #        Max Planck Institute fuer Kohlenforschung    #
                  #                Kaiser Wilhelm Platz 1               #
                  #                 D-45470 Muelheim/Ruhr               #
                  #                      Germany                        #
                  #                                                     #
                  #                  All rights reserved                #
                  #                        -***-                        #
                  #######################################################


                         Program Version 5.0.2 -  RELEASE  -


 With contributions from (in alphabetic order):
   Daniel Aravena         : Magnetic Suceptibility
   Michael Atanasov       : Ab Initio Ligand Field Theory (pilot matlab implementation)
   Alexander A. Auer      : GIAO ZORA, VPT2 properties, NMR spectrum
   Ute Becker             : Parallelization
   Giovanni Bistoni       : ED, misc. LED, open-shell LED, HFLD
   Martin Brehm           : Molecular dynamics
   Dmytro Bykov           : SCF Hessian
   Vijay G. Chilkuri      : MRCI spin determinant printing, contributions to CSF-ICE
   Dipayan Datta          : RHF DLPNO-CCSD density
   Achintya Kumar Dutta   : EOM-CC, STEOM-CC
   Dmitry Ganyushin       : Spin-Orbit,Spin-Spin,Magnetic field MRCI
   Miquel Garcia          : C-PCM and meta-GGA Hessian, CC/C-PCM, Gaussian charge scheme
   Yang Guo               : DLPNO-NEVPT2, F12-NEVPT2, CIM, IAO-localization
   Andreas Hansen         : Spin unrestricted coupled pair/coupled cluster methods
   Benjamin Helmich-Paris : MC-RPA, TRAH-SCF, COSX integrals
   Lee Huntington         : MR-EOM, pCC
   Robert Izsak           : Overlap fitted RIJCOSX, COSX-SCS-MP3, EOM
   Marcus Kettner         : VPT2
   Christian Kollmar      : KDIIS, OOCD, Brueckner-CCSD(T), CCSD density, CASPT2, CASPT2-K
   Simone Kossmann        : Meta GGA functionals, TD-DFT gradient, OOMP2, MP2 Hessian
   Martin Krupicka        : Initial AUTO-CI
   Lucas Lang             : DCDCAS
   Marvin Lechner         : AUTO-CI (C++ implementation), FIC-MRCC
   Dagmar Lenk            : GEPOL surface, SMD
   Dimitrios Liakos       : Extrapolation schemes; Compound Job, initial MDCI parallelization
   Dimitrios Manganas     : Further ROCIS development; embedding schemes
   Dimitrios Pantazis     : SARC Basis sets
   Anastasios Papadopoulos: AUTO-CI, single reference methods and gradients
   Taras Petrenko         : DFT Hessian,TD-DFT gradient, ASA, ECA, R-Raman, ABS, FL, XAS/XES, NRVS
   Peter Pinski           : DLPNO-MP2, DLPNO-MP2 Gradient
   Christoph Reimann      : Effective Core Potentials
   Marius Retegan         : Local ZFS, SOC
   Christoph Riplinger    : Optimizer, TS searches, QM/MM, DLPNO-CCSD(T), (RO)-DLPNO pert. Triples
   Tobias Risthaus        : Range-separated hybrids, TD-DFT gradient, RPA, STAB
   Michael Roemelt        : Original ROCIS implementation
   Masaaki Saitow         : Open-shell DLPNO-CCSD energy and density
   Barbara Sandhoefer     : DKH picture change effects
   Avijit Sen             : IP-ROCIS
   Kantharuban Sivalingam : CASSCF convergence, NEVPT2, FIC-MRCI
   Bernardo de Souza      : ESD, SOC TD-DFT
   Georgi Stoychev        : AutoAux, RI-MP2 NMR, DLPNO-MP2 response
   Willem Van den Heuvel  : Paramagnetic NMR
   Boris Wezisla          : Elementary symmetry handling
   Frank Wennmohs         : Technical directorship


 We gratefully acknowledge several colleagues who have allowed us to
 interface, adapt or use parts of their codes:
   Stefan Grimme, W. Hujo, H. Kruse, P. Pracht,  : VdW corrections, initial TS optimization,
                  C. Bannwarth, S. Ehlert          DFT functionals, gCP, sTDA/sTD-DF
   Ed Valeev, F. Pavosevic, A. Kumar             : LibInt (2-el integral package), F12 methods
   Garnet Chan, S. Sharma, J. Yang, R. Olivares  : DMRG
   Ulf Ekstrom                                   : XCFun DFT Library
   Mihaly Kallay                                 : mrcc  (arbitrary order and MRCC methods)
   Jiri Pittner, Ondrej Demel                    : Mk-CCSD
   Frank Weinhold                                : gennbo (NPA and NBO analysis)
   Christopher J. Cramer and Donald G. Truhlar   : smd solvation model
   Lars Goerigk                                  : TD-DFT with DH, B97 family of functionals
   V. Asgeirsson, H. Jonsson                     : NEB implementation
   FAccTs GmbH                                   : IRC, NEB, NEB-TS, DLPNO-Multilevel, CI-OPT
                                                   MM, QMMM, 2- and 3-layer-ONIOM, Crystal-QMMM,
                                                   LR-CPCM, SF, NACMEs, symmetry and pop. for TD-DFT,
                                                   nearIR, NL-DFT gradient (VV10), updates on ESD,
                                                   ML-optimized integration grids
   S Lehtola, MJT Oliveira, MAL Marques          : LibXC Library
   Liviu Ungur et al                             : ANISO software


 Your calculation uses the libint2 library for the computation of 2-el integrals
 For citations please refer to: http://libint.valeyev.net

 Your ORCA version has been built with support for libXC version: 5.1.0
 For citations please refer to: https://tddft.org/programs/libxc/

 This ORCA versions uses:
   CBLAS   interface :  Fast vector & matrix operations
   LAPACKE interface :  Fast linear algebra routines
   SCALAPACK package :  Parallel linear algebra routines
   Shared memory     :  Shared parallel matrices
   BLAS/LAPACK       :  OpenBLAS 0.3.15  USE64BITINT DYNAMIC_ARCH NO_AFFINITY Haswell SINGLE_THREADED
        Core in use  :  Haswell
   Copyright (c) 2011-2014, The OpenBLAS Project


Your calculation utilizes the SMD solvation module
Please cite in your paper:
A.V. Marenich, C.J. Cramer, D.G. Truhlar J. Phys. Chem. B, 113, (2009), 6378 

================================================================================

----- Orbital basis set information -----
Your calculation utilizes the basis: aug-cc-pVTZ 
    H, B-Ne : Obtained from the ccRepo (grant-hill.group.shef.ac.uk/ccrepo) Feb. 2017
              R. A. Kendall, T. H. Dunning, Jr., R. J. Harrison, J. Chem. Phys. 96, 6796 (1992)
         He : Obtained from the ccRepo (grant-hill.group.shef.ac.uk/ccrepo) Feb. 2017
              D. E. Woon, T. H. Dunning, Jr., J. Chem. Phys. 100, 2975 (1994)
  Li-Be, Na : Obtained from the ccRepo (grant-hill.group.shef.ac.uk/ccrepo) Feb. 2017
              B. P. Prascher, D. E. Woon, K. A. Peterson, T. H. Dunning, Jr., A. K. Wilson, Theor. Chem. Acc. 128, 69 (2011)
         Mg : Obtained from the Peterson Research Group Website (tyr0.chem.wsu.edu/~kipeters) Feb. 2017
              B. P. Prascher, D. E. Woon, K. A. Peterson, T. H. Dunning, Jr., A. K. Wilson, Theor. Chem. Acc. 128, 69 (2011)
      Al-Ar : Obtained from the ccRepo (grant-hill.group.shef.ac.uk/ccrepo) Feb. 2017
              D. E. Woon, T. H. Dunning, Jr., J. Chem. Phys. 98, 1358 (1993)
      Sc-Zn : Obtained from the ccRepo (grant-hill.group.shef.ac.uk/ccrepo) Feb. 2017
              N. B. Balabanov, K. A. Peterson, J. Chem. Phys. 123, 064107 (2005)
              N. B. Balabanov, K. A. Peterson, J. Chem. Phys. 125, 074110 (2006)
      Ga-Kr : Obtained from the ccRepo (grant-hill.group.shef.ac.uk/ccrepo) Feb. 2017
              A. K. Wilson, D. E. Woon, K. A. Peterson, T. H. Dunning, Jr., J. Chem. Phys. 110, 7667 (1999)
     Ag, Au : Obtained from the Peterson Research Group Website (tyr0.chem.wsu.edu/~kipeters) Feb. 2017
              K. A. Peterson, C. Puzzarini, Theor. Chem. Acc. 114, 283 (2005)

The basis set includes element-specific modifications.

Your calculation utilizes the basis: cc-pVTZ 
       H, B-Ne : Obtained from the ccRepo (grant-hill.group.shef.ac.uk/ccrepo) Feb. 2017
                 T. H. Dunning, Jr., J. Chem. Phys. 90, 1007 (1989)
            He : Obtained from the ccRepo (grant-hill.group.shef.ac.uk/ccrepo) Feb. 2017
                 D. E. Woon, T. H. Dunning, Jr., J. Chem. Phys. 100, 2975 (1994)
  Li-Be, Na-Mg : Obtained from the ccRepo (grant-hill.group.shef.ac.uk/ccrepo) Feb. 2017
                 B. P. Prascher, D. E. Woon, K. A. Peterson, T. H. Dunning, Jr., A. K. Wilson, Theor. Chem. Acc. 128, 69 (2011)
         Al-Ar : Obtained from the ccRepo (grant-hill.group.shef.ac.uk/ccrepo) Feb. 2017
                 D. E. Woon, T. H. Dunning, Jr., J. Chem. Phys. 98, 1358 (1993)
            Ca : Obtained from the Peterson Research Group Website (tyr0.chem.wsu.edu/~kipeters) Feb. 2017
                 J. Koput, K. A. Peterson, J. Phys. Chem. 106, 9595 (2002)
         Sc-Zn : Obtained from the ccRepo (grant-hill.group.shef.ac.uk/ccrepo) Feb. 2017
                 N. B. Balabanov, K. A. Peterson, J. Chem. Phys. 123, 064107 (2005)
                 N. B. Balabanov, K. A. Peterson, J. Chem. Phys. 125, 074110 (2006)
         Ga-Kr : Obtained from the ccRepo (grant-hill.group.shef.ac.uk/ccrepo) Feb. 2017
                 A. K. Wilson, D. E. Woon, K. A. Peterson, T. H. Dunning, Jr., J. Chem. Phys. 110, 7667 (1999)
             Y : Obtained from the ccRepo (grant-hill.group.shef.ac.uk/ccrepo) Feb. 2017
                 K. A. Peterson, D. Figgen, M. Dolg, H. Stoll, J. Chem. Phys. 126, 124101 (2007)
        Ag, Au : Obtained from the Peterson Research Group Website (tyr0.chem.wsu.edu/~kipeters) Feb. 2017
                 K. A. Peterson, C. Puzzarini, Theor. Chem. Acc. 114, 283 (2005)

----- AuxJ basis set information -----
Your calculation utilizes the auxiliary basis: aug-cc-pVTZ/JK 
  H, B-F, Al-Cl, Ga-Br : Obtained from the TURBOMOLE 7.0 basis set library

The basis set includes element-specific modifications.

Your calculation utilizes the auxiliary basis: cc-pVTZ/JK 
  H, B-F, Al-Cl, Ga-Br : Obtained from the TURBOMOLE 7.0 basis set library

----- AuxC basis set information -----
Your calculation utilizes the auxiliary basis: aug-cc-pVTZ/C 
  H-He, B-F, Al-Ar, Ga-Kr : Obtained from the EMSL Basis Set Exchange (bse.pnl.gov) Feb. 2017
                            F. Weigend, A. Kohn, C. Hattig, J. Chem. Phys. 116, 3175 (2002)
                   Be, Mg : Obtained from the TURBOMOLE 7.0 basis set library
                            C. Haettig, Phys. Chem. Chem. Phys. 7, 59 (2005)
                       Ne : Obtained from the EMSL Basis Set Exchange (bse.pnl.gov) Feb. 2017
                            C. Haettig, Phys. Chem. Chem. Phys. 7, 59 (2005)
                            F. Weigend, A. Kohn, C. Hattig, J. Chem. Phys. 116, 3175 (2002)
                    Sc-Zn : Obtained from the EMSL Basis Set Exchange (bse.pnl.gov) Feb. 2017
                            J. G. Hill, J. A. Platts, J. Chem. Phys. 128, 044104 (2008)

The basis set includes element-specific modifications.

Your calculation utilizes the auxiliary basis: cc-pVTZ/C 
  Obtained from the EMSL Basis Set Exchange (bse.pnl.gov) Feb. 2017
  H-He, B-F, Al-Ar, Ga-Kr : F. Weigend, A. Kohn, C. Hattig, J. Chem. Phys. 116, 3175 (2002)
             Li-Be, Na-Mg : C. Haettig, Phys. Chem. Chem. Phys. 7, 59 (2005)
                       Ne : C. Haettig, Phys. Chem. Chem. Phys. 7, 59 (2005)
                            F. Weigend, A. Kohn, C. Hattig, J. Chem. Phys. 116, 3175 (2002)
                    Sc-Zn : J. G. Hill, J. A. Platts, J. Chem. Phys. 128, 044104 (2008)

================================================================================
                                        WARNINGS
                       Please study these warnings very carefully!
================================================================================


WARNING: Geometry Optimization
  ===> : Switching off AutoStart
         For restart on a previous wavefunction, please use MOREAD

INFO   : the flag for use of the SHARK integral package has been found!



***************************************
The coordinates will be read from file: 
***************************************


Your calculation utilizes the SMD solvation module
Please cite in your paper:
A.V. Marenich, C.J. Cramer, D.G. Truhlar J. Phys. Chem. B, 113, (2009), 6378 

================================================================================

----- Orbital basis set information -----
Your calculation utilizes the basis: aug-cc-pVTZ 
    H, B-Ne : Obtained from the ccRepo (grant-hill.group.shef.ac.uk/ccrepo) Feb. 2017
              R. A. Kendall, T. H. Dunning, Jr., R. J. Harrison, J. Chem. Phys. 96, 6796 (1992)
         He : Obtained from the ccRepo (grant-hill.group.shef.ac.uk/ccrepo) Feb. 2017
              D. E. Woon, T. H. Dunning, Jr., J. Chem. Phys. 100, 2975 (1994)
  Li-Be, Na : Obtained from the ccRepo (grant-hill.group.shef.ac.uk/ccrepo) Feb. 2017
              B. P. Prascher, D. E. Woon, K. A. Peterson, T. H. Dunning, Jr., A. K. Wilson, Theor. Chem. Acc. 128, 69 (2011)
         Mg : Obtained from the Peterson Research Group Website (tyr0.chem.wsu.edu/~kipeters) Feb. 2017
              B. P. Prascher, D. E. Woon, K. A. Peterson, T. H. Dunning, Jr., A. K. Wilson, Theor. Chem. Acc. 128, 69 (2011)
      Al-Ar : Obtained from the ccRepo (grant-hill.group.shef.ac.uk/ccrepo) Feb. 2017
              D. E. Woon, T. H. Dunning, Jr., J. Chem. Phys. 98, 1358 (1993)
      Sc-Zn : Obtained from the ccRepo (grant-hill.group.shef.ac.uk/ccrepo) Feb. 2017
              N. B. Balabanov, K. A. Peterson, J. Chem. Phys. 123, 064107 (2005)
              N. B. Balabanov, K. A. Peterson, J. Chem. Phys. 125, 074110 (2006)
      Ga-Kr : Obtained from the ccRepo (grant-hill.group.shef.ac.uk/ccrepo) Feb. 2017
              A. K. Wilson, D. E. Woon, K. A. Peterson, T. H. Dunning, Jr., J. Chem. Phys. 110, 7667 (1999)
     Ag, Au : Obtained from the Peterson Research Group Website (tyr0.chem.wsu.edu/~kipeters) Feb. 2017
              K. A. Peterson, C. Puzzarini, Theor. Chem. Acc. 114, 283 (2005)

The basis set includes element-specific modifications.

Your calculation utilizes the basis: cc-pVTZ 
       H, B-Ne : Obtained from the ccRepo (grant-hill.group.shef.ac.uk/ccrepo) Feb. 2017
                 T. H. Dunning, Jr., J. Chem. Phys. 90, 1007 (1989)
            He : Obtained from the ccRepo (grant-hill.group.shef.ac.uk/ccrepo) Feb. 2017
                 D. E. Woon, T. H. Dunning, Jr., J. Chem. Phys. 100, 2975 (1994)
  Li-Be, Na-Mg : Obtained from the ccRepo (grant-hill.group.shef.ac.uk/ccrepo) Feb. 2017
                 B. P. Prascher, D. E. Woon, K. A. Peterson, T. H. Dunning, Jr., A. K. Wilson, Theor. Chem. Acc. 128, 69 (2011)
         Al-Ar : Obtained from the ccRepo (grant-hill.group.shef.ac.uk/ccrepo) Feb. 2017
                 D. E. Woon, T. H. Dunning, Jr., J. Chem. Phys. 98, 1358 (1993)
            Ca : Obtained from the Peterson Research Group Website (tyr0.chem.wsu.edu/~kipeters) Feb. 2017
                 J. Koput, K. A. Peterson, J. Phys. Chem. 106, 9595 (2002)
         Sc-Zn : Obtained from the ccRepo (grant-hill.group.shef.ac.uk/ccrepo) Feb. 2017
                 N. B. Balabanov, K. A. Peterson, J. Chem. Phys. 123, 064107 (2005)
                 N. B. Balabanov, K. A. Peterson, J. Chem. Phys. 125, 074110 (2006)
         Ga-Kr : Obtained from the ccRepo (grant-hill.group.shef.ac.uk/ccrepo) Feb. 2017
                 A. K. Wilson, D. E. Woon, K. A. Peterson, T. H. Dunning, Jr., J. Chem. Phys. 110, 7667 (1999)
             Y : Obtained from the ccRepo (grant-hill.group.shef.ac.uk/ccrepo) Feb. 2017
                 K. A. Peterson, D. Figgen, M. Dolg, H. Stoll, J. Chem. Phys. 126, 124101 (2007)
        Ag, Au : Obtained from the Peterson Research Group Website (tyr0.chem.wsu.edu/~kipeters) Feb. 2017
                 K. A. Peterson, C. Puzzarini, Theor. Chem. Acc. 114, 283 (2005)

----- AuxJ basis set information -----
Your calculation utilizes the auxiliary basis: aug-cc-pVTZ/JK 
  H, B-F, Al-Cl, Ga-Br : Obtained from the TURBOMOLE 7.0 basis set library

The basis set includes element-specific modifications.

Your calculation utilizes the auxiliary basis: cc-pVTZ/JK 
  H, B-F, Al-Cl, Ga-Br : Obtained from the TURBOMOLE 7.0 basis set library

----- AuxC basis set information -----
Your calculation utilizes the auxiliary basis: aug-cc-pVTZ/C 
  H-He, B-F, Al-Ar, Ga-Kr : Obtained from the EMSL Basis Set Exchange (bse.pnl.gov) Feb. 2017
                            F. Weigend, A. Kohn, C. Hattig, J. Chem. Phys. 116, 3175 (2002)
                   Be, Mg : Obtained from the TURBOMOLE 7.0 basis set library
                            C. Haettig, Phys. Chem. Chem. Phys. 7, 59 (2005)
                       Ne : Obtained from the EMSL Basis Set Exchange (bse.pnl.gov) Feb. 2017
                            C. Haettig, Phys. Chem. Chem. Phys. 7, 59 (2005)
                            F. Weigend, A. Kohn, C. Hattig, J. Chem. Phys. 116, 3175 (2002)
                    Sc-Zn : Obtained from the EMSL Basis Set Exchange (bse.pnl.gov) Feb. 2017
                            J. G. Hill, J. A. Platts, J. Chem. Phys. 128, 044104 (2008)

The basis set includes element-specific modifications.

Your calculation utilizes the auxiliary basis: cc-pVTZ/C 
  Obtained from the EMSL Basis Set Exchange (bse.pnl.gov) Feb. 2017
  H-He, B-F, Al-Ar, Ga-Kr : F. Weigend, A. Kohn, C. Hattig, J. Chem. Phys. 116, 3175 (2002)
             Li-Be, Na-Mg : C. Haettig, Phys. Chem. Chem. Phys. 7, 59 (2005)
                       Ne : C. Haettig, Phys. Chem. Chem. Phys. 7, 59 (2005)
                            F. Weigend, A. Kohn, C. Hattig, J. Chem. Phys. 116, 3175 (2002)
                    Sc-Zn : J. G. Hill, J. A. Platts, J. Chem. Phys. 128, 044104 (2008)

================================================================================
                                        WARNINGS
                       Please study these warnings very carefully!
================================================================================

INFO   : Checking CIS options ...

INFO   : the flag for use of the SHARK integral package has been found!

================================================================================
                                       INPUT FILE
================================================================================
NAME = pbe0-train-18.inp
|  1> ! pbe0 aug-cc-PVTZ RIJCOSX Opt
|  2> %maxcore 4000
|  3> %basis
|  4>  AuxJ "aug-cc-PVTZ/JK"
|  5>  AuxC "aug-cc-PVTZ/C"
|  6>  newGTO H "cc-PVTZ" end
|  7>  newAuxJGTO H "cc-PVTZ/JK" end
|  8>  newAuxCGTO H "cc-PVTZ/C" end
|  9> end
| 10> %cpcm
| 11>  SMD true
| 12>  SMDsolvent "ethanol"
| 13> end
| 14> %pal nprocs 4 end
| 15> * xyz 0 1
| 16> C         -4.68160        0.30280       -1.06730
| 17> C         -4.55820        0.00650        0.28040
| 18> C         -3.30890       -0.15020        0.84950
| 19> C         -2.15940       -0.01140        0.07290
| 20> C         -0.82380       -0.16900        0.63620
| 21> C         -0.50840       -0.46110        1.94080
| 22> S          1.18340       -0.55520        2.16840
| 23> C          1.37840       -0.18700        0.45350
| 24> C          2.68340       -0.08810       -0.15860
| 25> C          2.79850        0.20500       -1.51980
| 26> C          4.06540        0.29120       -2.06860
| 27> N          5.17790        0.11120       -1.37550
| 28> C          5.06900       -0.16630       -0.08730
| 29> C          3.85700       -0.27780        0.57150
| 30> N          0.26230       -0.02340       -0.16410
| 31> C         -2.29340        0.28700       -1.28310
| 32> C         -3.54470        0.44250       -1.84640
| 33> H         -5.66040        0.42420       -1.50710
| 34> H         -5.44200       -0.10330        0.89190
| 35> H         -3.22970       -0.38090        1.90090
| 36> H         -1.16210       -0.62500        2.77260
| 37> H          1.91090        0.35700       -2.11140
| 38> H          4.20260        0.51600       -3.11820
| 39> H          6.00300       -0.30580        0.44110
| 40> H          3.81790       -0.50630        1.62610
| 41> H         -1.40130        0.39350       -1.88020
| 42> H         -3.63550        0.67350       -2.89770
| 43> *
| 44> 
| 45> 
| 46> $new_job
| 47> ! pbe0 aug-cc-PVTZ RIJCOSX SP
| 48> %maxcore 4000
| 49> %basis
| 50>  AuxJ "aug-cc-PVTZ/JK"
| 51>  AuxC "aug-cc-PVTZ/C"
| 52>  newGTO H "cc-PVTZ" end
| 53>  newAuxJGTO H "cc-PVTZ/JK" end
| 54>  newAuxCGTO H "cc-PVTZ/C" end
| 55> end
| 56> %cpcm
| 57>  SMD true
| 58>  SMDsolvent "ethanol"
| 59> end
| 60> %pal nprocs 4 end
| 61> %tddft
| 62>  nroots 10
| 63>  maxdim 7
| 64> end
| 65> * xyzfile 0 1
| 66> 
| 67>                          ****END OF INPUT****
================================================================================


                 $$$$$$$$$$$$$$$$$$$$$$$$$$$$$$$$$$$$$$$$$$$$$$ 
                 $ THERE ARE  2 JOBS TO BE PROCESSED THIS RUN $
                 $$$$$$$$$$$$$$$$$$$$$$$$$$$$$$$$$$$$$$$$$$$$$$ 




                 $$$$$$$$$$$$$$$$  JOB NUMBER  1 $$$$$$$$$$$$$$


                       *****************************
                       * Geometry Optimization Run *
                       *****************************

Geometry optimization settings:
Update method            Update   .... BFGS
Choice of coordinates    CoordSys .... Z-matrix Internals
Initial Hessian          InHess   .... Almoef's Model

Convergence Tolerances:
Energy Change            TolE     ....  5.0000e-06 Eh
Max. Gradient            TolMAXG  ....  3.0000e-04 Eh/bohr
RMS Gradient             TolRMSG  ....  1.0000e-04 Eh/bohr
Max. Displacement        TolMAXD  ....  4.0000e-03 bohr
RMS Displacement         TolRMSD  ....  2.0000e-03 bohr
Strict Convergence                ....  False
------------------------------------------------------------------------------
                        ORCA OPTIMIZATION COORDINATE SETUP
------------------------------------------------------------------------------

The optimization will be done in new redundant internal coordinates
Making redundant internal coordinates   ...  (new redundants) done
Evaluating the initial hessian          ...  (Almloef) done
Evaluating the coordinates              ...  done
Calculating the B-matrix                .... done
Calculating the G-matrix                .... done
Diagonalizing the G-matrix              .... done
Small eigenvalue found = 4.208e-03
Small eigenvalue found = 2.491e-02
Small eigenvalue found = 2.852e-02
The first mode is                       ....   63
The number of degrees of freedom        ....   75

    -----------------------------------------------------------------
                    Redundant Internal Coordinates


    -----------------------------------------------------------------
         Definition                    Initial Value    Approx d2E/dq
    -----------------------------------------------------------------
      1. B(C   1,C   0)                  1.3854         0.635458   
      2. B(C   2,C   1)                  1.3817         0.644068   
      3. B(C   3,C   2)                  1.3942         0.615287   
      4. B(C   4,C   3)                  1.4581         0.486559   
      5. B(C   5,C   4)                  1.3736         0.663593   
      6. B(S   6,C   5)                  1.7096         0.520658   
      7. B(C   7,S   6)                  1.7648         0.425163   
      8. B(C   8,C   7)                  1.4448         0.510851   
      9. B(C   9,C   8)                  1.3971         0.608605   
     10. B(C  10,C   9)                  1.3833         0.640256   
     11. B(N  11,C  10)                  1.3230         0.715650   
     12. B(C  12,N  11)                  1.3222         0.717759   
     13. B(C  13,C  12)                  1.3840         0.638774   
     14. B(C  13,C   8)                  1.3951         0.613147   
     15. B(N  14,C   4)                  1.3569         0.631854   
     16. B(N  14,C   7)                  1.2860         0.819884   
     17. B(C  15,C   3)                  1.3949         0.613659   
     18. B(C  16,C  15)                  1.3810         0.645732   
     19. B(C  16,C   0)                  1.3853         0.635679   
     20. B(H  17,C   0)                  1.0799         0.373695   
     21. B(H  18,C   1)                  1.0803         0.373136   
     22. B(H  19,C   2)                  1.0793         0.374506   
     23. B(H  20,C   5)                  1.0706         0.386771   
     24. B(H  21,C   9)                  1.0775         0.377072   
     25. B(H  22,C  10)                  1.0821         0.370654   
     26. B(H  23,C  12)                  1.0821         0.370652   
     27. B(H  24,C  13)                  1.0798         0.373878   
     28. B(H  25,C  15)                  1.0788         0.375287   
     29. B(H  26,C  16)                  1.0802         0.373297   
     30. A(C   1,C   0,C  16)          119.7074         0.437962   
     31. A(C  16,C   0,H  17)          120.2297         0.356640   
     32. A(C   1,C   0,H  17)          120.0629         0.356619   
     33. A(C   0,C   1,C   2)          120.3618         0.438999   
     34. A(C   0,C   1,H  18)          119.9672         0.356529   
     35. A(C   2,C   1,H  18)          119.6710         0.357345   
     36. A(C   3,C   2,H  19)          120.2252         0.354803   
     37. A(C   1,C   2,H  19)          119.4594         0.357567   
     38. A(C   1,C   2,C   3)          120.3154         0.436453   
     39. A(C   4,C   3,C  15)          119.1224         0.414888   
     40. A(C   2,C   3,C   4)          121.9573         0.415083   
     41. A(C   2,C   3,C  15)          118.9202         0.432670   
     42. A(C   5,C   4,N  14)          113.5274         0.438023   
     43. A(C   3,C   4,C   5)          126.8870         0.420709   
     44. A(C   3,C   4,N  14)          119.5856         0.414351   
     45. A(C   4,C   5,S   6)          111.4301         0.449481   
     46. A(S   6,C   5,H  20)          119.4975         0.364917   
     47. A(C   4,C   5,H  20)          129.0724         0.361368   
     48. A(C   5,S   6,C   7)           88.1945         0.437809   
     49. A(S   6,C   7,C   8)          121.7196         0.413528   
     50. A(C   8,C   7,N  14)          124.8704         0.437938   
     51. A(S   6,C   7,N  14)          113.4100         0.447234   
     52. A(C   9,C   8,C  13)          117.9747         0.431757   
     53. A(C   7,C   8,C  13)          121.9243         0.418439   
     54. A(C   7,C   8,C   9)          120.1009         0.417885   
     55. A(C   8,C   9,C  10)          118.3614         0.435130   
     56. A(C  10,C   9,H  21)          121.8587         0.357622   
     57. A(C   8,C   9,H  21)          119.7799         0.354557   
     58. A(C   9,C  10,N  11)          123.6265         0.445104   
     59. A(N  11,C  10,H  22)          115.4529         0.361150   
     60. A(C   9,C  10,H  22)          120.9206         0.356580   
     61. A(C  10,N  11,C  12)          118.0135         0.451427   
     62. A(N  11,C  12,C  13)          123.5592         0.445154   
     63. A(C  13,C  12,H  23)          120.8660         0.356439   
     64. A(N  11,C  12,H  23)          115.5749         0.361331   
     65. A(C   8,C  13,C  12)          118.4647         0.435531   
     66. A(C  12,C  13,H  24)          120.9092         0.356965   
     67. A(C   8,C  13,H  24)          120.6261         0.354493   
     68. A(C   4,N  14,C   7)          113.4379         0.452125   
     69. A(C   3,C  15,C  16)          120.5067         0.436447   
     70. A(C  16,C  15,H  25)          120.8242         0.357851   
     71. A(C   3,C  15,H  25)          118.6691         0.354769   
     72. A(C   0,C  16,C  15)          120.1884         0.439231   
     73. A(C  15,C  16,H  26)          119.8157         0.357528   
     74. A(C   0,C  16,H  26)          119.9958         0.356576   
     75. D(C   2,C   1,C   0,H  17)    179.9970         0.028029   
     76. D(H  18,C   1,C   0,C  16)    179.9958         0.028029   
     77. D(H  18,C   1,C   0,H  17)      0.0059         0.028029   
     78. D(C   2,C   1,C   0,C  16)     -0.0131         0.028029   
     79. D(H  19,C   2,C   1,C   0)    179.9996         0.028846   
     80. D(C   3,C   2,C   1,H  18)   -179.9969         0.028846   
     81. D(H  19,C   2,C   1,H  18)     -0.0092         0.028846   
     82. D(C   3,C   2,C   1,C   0)      0.0120         0.028846   
     83. D(C  15,C   3,C   2,H  19)   -179.9986         0.026173   
     84. D(C  15,C   3,C   2,C   1)     -0.0110         0.026173   
     85. D(C   4,C   3,C   2,C   1)    179.9952         0.026173   
     86. D(C   4,C   3,C   2,H  19)      0.0076         0.026173   
     87. D(N  14,C   4,C   3,C   2)    179.9991         0.016119   
     88. D(C   5,C   4,C   3,C   2)     -0.0006         0.016119   
     89. D(C   5,C   4,C   3,C  15)   -179.9944         0.016119   
     90. D(N  14,C   4,C   3,C  15)      0.0053         0.016119   
     91. D(H  20,C   5,C   4,N  14)   -179.9935         0.030752   
     92. D(H  20,C   5,C   4,C   3)      0.0063         0.030752   
     93. D(S   6,C   5,C   4,N  14)     -0.0062         0.030752   
     94. D(S   6,C   5,C   4,C   3)    179.9935         0.030752   
     95. D(C   7,S   6,C   5,H  20)    179.9981         0.005534   
     96. D(C   7,S   6,C   5,C   4)      0.0095         0.005534   
     97. D(N  14,C   7,S   6,C   5)     -0.0115         0.004140   
     98. D(C   8,C   7,S   6,C   5)    179.9995         0.004140   
     99. D(C  13,C   8,C   7,N  14)   -179.9942         0.017786   
    100. D(C  13,C   8,C   7,S   6)     -0.0065         0.017786   
    101. D(C   9,C   8,C   7,N  14)      0.0029         0.017786   
    102. D(C   9,C   8,C   7,S   6)    179.9906         0.017786   
    103. D(H  21,C   9,C   8,C   7)     -0.0000         0.025575   
    104. D(C  10,C   9,C   8,C  13)     -0.0060         0.025575   
    105. D(C  10,C   9,C   8,C   7)    179.9968         0.025575   
    106. D(H  21,C   9,C   8,C  13)    179.9972         0.025575   
    107. D(H  22,C  10,C   9,H  21)      0.0006         0.028483   
    108. D(H  22,C  10,C   9,C   8)   -179.9961         0.028483   
    109. D(N  11,C  10,C   9,H  21)   -179.9991         0.028483   
    110. D(N  11,C  10,C   9,C   8)      0.0042         0.028483   
    111. D(C  12,N  11,C  10,H  22)   -179.9982         0.038520   
    112. D(C  12,N  11,C  10,C   9)      0.0015         0.038520   
    113. D(H  23,C  12,N  11,C  10)    179.9987         0.038770   
    114. D(C  13,C  12,N  11,C  10)     -0.0053         0.038770   
    115. D(H  24,C  13,C  12,H  23)     -0.0045         0.028342   
    116. D(C   8,C  13,C  12,H  23)    179.9990         0.028342   
    117. D(C   8,C  13,C  12,N  11)      0.0032         0.028342   
    118. D(H  24,C  13,C   8,C   9)   -179.9939         0.025980   
    119. D(H  24,C  13,C   8,C   7)      0.0033         0.025980   
    120. D(H  24,C  13,C  12,N  11)    179.9997         0.028342   
    121. D(C  12,C  13,C   8,C   9)      0.0026         0.025980   
    122. D(C  12,C  13,C   8,C   7)    179.9998         0.025980   
    123. D(C   4,N  14,C   7,C   8)    179.9988         0.052117   
    124. D(C   4,N  14,C   7,S   6)      0.0103         0.052117   
    125. D(C   7,N  14,C   4,C   5)     -0.0027         0.029374   
    126. D(C   7,N  14,C   4,C   3)    179.9975         0.029374   
    127. D(H  25,C  15,C   3,C   4)     -0.0060         0.026026   
    128. D(H  25,C  15,C   3,C   2)   -179.9999         0.026026   
    129. D(C  16,C  15,C   3,C   4)   -179.9946         0.026026   
    130. D(C  16,C  15,C   3,C   2)      0.0115         0.026026   
    131. D(C   0,C  16,C  15,H  25)    179.9988         0.029006   
    132. D(C   0,C  16,C  15,C   3)     -0.0128         0.029006   
    133. D(H  26,C  16,C   0,H  17)     -0.0097         0.028050   
    134. D(H  26,C  16,C   0,C   1)   -179.9995         0.028050   
    135. D(C  15,C  16,C   0,H  17)   -179.9966         0.028050   
    136. D(H  26,C  16,C  15,C   3)   -179.9998         0.029006   
    137. D(C  15,C  16,C   0,C   1)      0.0135         0.028050   
    138. D(H  26,C  16,C  15,H  25)      0.0118         0.029006   
    -----------------------------------------------------------------

Number of atoms                         .... 27
Number of degrees of freedom            .... 138

         *************************************************************
         *                GEOMETRY OPTIMIZATION CYCLE   1            *
         *************************************************************
---------------------------------
CARTESIAN COORDINATES (ANGSTROEM)
---------------------------------
  C     -4.681600    0.302800   -1.067300
  C     -4.558200    0.006500    0.280400
  C     -3.308900   -0.150200    0.849500
  C     -2.159400   -0.011400    0.072900
  C     -0.823800   -0.169000    0.636200
  C     -0.508400   -0.461100    1.940800
  S      1.183400   -0.555200    2.168400
  C      1.378400   -0.187000    0.453500
  C      2.683400   -0.088100   -0.158600
  C      2.798500    0.205000   -1.519800
  C      4.065400    0.291200   -2.068600
  N      5.177900    0.111200   -1.375500
  C      5.069000   -0.166300   -0.087300
  C      3.857000   -0.277800    0.571500
  N      0.262300   -0.023400   -0.164100
  C     -2.293400    0.287000   -1.283100
  C     -3.544700    0.442500   -1.846400
  H     -5.660400    0.424200   -1.507100
  H     -5.442000   -0.103300    0.891900
  H     -3.229700   -0.380900    1.900900
  H     -1.162100   -0.625000    2.772600
  H      1.910900    0.357000   -2.111400
  H      4.202600    0.516000   -3.118200
  H      6.003000   -0.305800    0.441100
  H      3.817900   -0.506300    1.626100
  H     -1.401300    0.393500   -1.880200
  H     -3.635500    0.673500   -2.897700

----------------------------
CARTESIAN COORDINATES (A.U.)
----------------------------
  NO LB      ZA    FRAG     MASS         X           Y           Z
   0 C     6.0000    0    12.011   -8.846942    0.572209   -2.016905
   1 C     6.0000    0    12.011   -8.613750    0.012283    0.529879
   2 C     6.0000    0    12.011   -6.252915   -0.283837    1.605322
   3 C     6.0000    0    12.011   -4.080675   -0.021543    0.137761
   4 C     6.0000    0    12.011   -1.556756   -0.319364    1.202244
   5 C     6.0000    0    12.011   -0.960737   -0.871353    3.667580
   6 S    16.0000    0    32.060    2.236302   -1.049176    4.097682
   7 C     6.0000    0    12.011    2.604799   -0.353379    0.856991
   8 C     6.0000    0    12.011    5.070891   -0.166485   -0.299711
   9 C     6.0000    0    12.011    5.288399    0.387394   -2.872006
  10 C     6.0000    0    12.011    7.682493    0.550288   -3.909087
  11 N     7.0000    0    14.007    9.784813    0.210138   -2.599318
  12 C     6.0000    0    12.011    9.579022   -0.314261   -0.164973
  13 C     6.0000    0    12.011    7.288674   -0.524966    1.079978
  14 N     7.0000    0    14.007    0.495675   -0.044220   -0.310104
  15 C     6.0000    0    12.011   -4.333898    0.542351   -2.424708
  16 C     6.0000    0    12.011   -6.698512    0.836204   -3.489190
  17 H     1.0000    0     1.008  -10.696606    0.801622   -2.848006
  18 H     1.0000    0     1.008  -10.283890   -0.195209    1.685447
  19 H     1.0000    0     1.008   -6.103248   -0.719797    3.592180
  20 H     1.0000    0     1.008   -2.196051   -1.181079    5.239455
  21 H     1.0000    0     1.008    3.611078    0.674632   -3.989968
  22 H     1.0000    0     1.008    7.941763    0.975099   -5.892544
  23 H     1.0000    0     1.008   11.344026   -0.577878    0.833558
  24 H     1.0000    0     1.008    7.214785   -0.956768    3.072884
  25 H     1.0000    0     1.008   -2.648073    0.743607   -3.553063
  26 H     1.0000    0     1.008   -6.870099    1.272731   -5.475859

--------------------------------
INTERNAL COORDINATES (ANGSTROEM)
--------------------------------
 C      0   0   0     0.000000000000     0.00000000     0.00000000
 C      1   0   0     1.385394001719     0.00000000     0.00000000
 C      2   1   0     1.381730867427   120.36179973     0.00000000
 C      3   2   1     1.394174755904   120.31544401     0.00000000
 C      4   3   2     1.458071332274   121.95731359   179.99518805
 C      5   4   3     1.373601372306   126.88703238     0.00000000
 S      6   5   4     1.709632653525   111.43007385   179.99348189
 C      7   6   5     1.764788443412    88.19454327     0.00000000
 C      8   7   6     1.444808852409   121.71960256   179.99950853
 C      9   8   7     1.397147472531   120.10093506   179.99060322
 C     10   9   8     1.383346482267   118.36140249   179.99676490
 N     11  10   9     1.323043408207   123.62648524     0.00000000
 C     12  11  10     1.322242300034   118.01350855     0.00000000
 C     13  12  11     1.383977488979   123.55916244     0.00000000
 N      8   7   6     1.286030299021   113.41003410     0.00000000
 C      4   3   2     1.394895895757   118.92024181     0.00000000
 C     16   4   3     1.381028178568   120.50666584     0.00000000
 H      1   2   3     1.079912700175   120.06285426   179.99703172
 H      2   1   3     1.080319735078   119.96716722   180.00886002
 H      3   2   1     1.079322514358   119.45936976   179.99962003
 H      6   5   4     1.070550391154   129.07237794     0.00000000
 H     10   9   8     1.077463836980   119.77990277     0.00000000
 H     11  10   9     1.082136331522   120.92058035   180.00387381
 H     13  12  11     1.082138073445   115.57487920   179.99870370
 H     14  13  12     1.079778782900   120.90923904   179.99971271
 H     16   4   3     1.078755333706   118.66913276   180.00007994
 H     17  16   4     1.080202448618   119.81571511   180.00016259

---------------------------
INTERNAL COORDINATES (A.U.)
---------------------------
 C      0   0   0     0.000000000000     0.00000000     0.00000000
 C      1   0   0     2.618015250827     0.00000000     0.00000000
 C      2   1   0     2.611092930222   120.36179973     0.00000000
 C      3   2   1     2.634608471485   120.31544401     0.00000000
 C      4   3   2     2.755355501720   121.95731359   179.99518805
 C      5   4   3     2.595730410836   126.88703238     0.00000000
 S      6   5   4     3.230737504772   111.43007385   179.99348189
 C      7   6   5     3.334966842358    88.19454327     0.00000000
 C      8   7   6     2.730293046918   121.71960256   179.99950853
 C      9   8   7     2.640226091784   120.10093506   179.99060322
 C     10   9   8     2.614145999808   118.36140249   179.99676490
 N     11  10   9     2.500189704801   123.62648524     0.00000000
 C     12  11  10     2.498675829751   118.01350855     0.00000000
 C     13  12  11     2.615338429682   123.55916244     0.00000000
 N      8   7   6     2.430245065075   113.41003410     0.00000000
 C      4   3   2     2.635971228312   118.92024181     0.00000000
 C     16   4   3     2.609765040722   120.50666584     0.00000000
 H      1   2   3     2.040739251875   120.06285426   179.99703172
 H      2   1   3     2.041508436369   119.96716722   180.00886002
 H      3   2   1     2.039623962312   119.45936976   179.99962003
 H      6   5   4     2.023047051843   129.07237794     0.00000000
 H     10   9   8     2.036111571096   119.77990277     0.00000000
 H     11  10   9     2.044941306143   120.92058035   180.00387381
 H     13  12  11     2.044944597901   115.57487920   179.99870370
 H     14  13  12     2.040486184899   120.90923904   179.99971271
 H     16   4   3     2.038552146212   118.66913276   180.00007994
 H     17  16   4     2.041286797079   119.81571511   180.00016259

---------------------
BASIS SET INFORMATION
---------------------
There are 4 groups of distinct atoms

 Group   1 Type C   : 19s6p3d2f contracted to 5s4p3d2f pattern {88111/3111/111/11}
 Group   2 Type S   : 42s17p3d2f contracted to 6s5p3d2f pattern {131313111/77111/111/11}
 Group   3 Type N   : 19s6p3d2f contracted to 5s4p3d2f pattern {88111/3111/111/11}
 Group   4 Type H   : 5s2p1d contracted to 3s2p1d pattern {311/11/1}

Atom   0C    basis set group =>   1
Atom   1C    basis set group =>   1
Atom   2C    basis set group =>   1
Atom   3C    basis set group =>   1
Atom   4C    basis set group =>   1
Atom   5C    basis set group =>   1
Atom   6S    basis set group =>   2
Atom   7C    basis set group =>   1
Atom   8C    basis set group =>   1
Atom   9C    basis set group =>   1
Atom  10C    basis set group =>   1
Atom  11N    basis set group =>   3
Atom  12C    basis set group =>   1
Atom  13C    basis set group =>   1
Atom  14N    basis set group =>   3
Atom  15C    basis set group =>   1
Atom  16C    basis set group =>   1
Atom  17H    basis set group =>   4
Atom  18H    basis set group =>   4
Atom  19H    basis set group =>   4
Atom  20H    basis set group =>   4
Atom  21H    basis set group =>   4
Atom  22H    basis set group =>   4
Atom  23H    basis set group =>   4
Atom  24H    basis set group =>   4
Atom  25H    basis set group =>   4
Atom  26H    basis set group =>   4
---------------------------------
AUXILIARY/J BASIS SET INFORMATION
---------------------------------
There are 4 groups of distinct atoms

 Group   1 Type C   : 10s7p5d2f1g contracted to 10s7p5d2f1g pattern {1111111111/1111111/11111/11/1}
 Group   2 Type S   : 13s11p9d3f1g contracted to 13s11p9d3f1g pattern {1111111111111/11111111111/111111111/111/1}
 Group   3 Type N   : 10s7p5d2f1g contracted to 10s7p5d2f1g pattern {1111111111/1111111/11111/11/1}
 Group   4 Type H   : 4s3p2d1f contracted to 4s3p2d1f pattern {1111/111/11/1}

Atom   0C    basis set group =>   1
Atom   1C    basis set group =>   1
Atom   2C    basis set group =>   1
Atom   3C    basis set group =>   1
Atom   4C    basis set group =>   1
Atom   5C    basis set group =>   1
Atom   6S    basis set group =>   2
Atom   7C    basis set group =>   1
Atom   8C    basis set group =>   1
Atom   9C    basis set group =>   1
Atom  10C    basis set group =>   1
Atom  11N    basis set group =>   3
Atom  12C    basis set group =>   1
Atom  13C    basis set group =>   1
Atom  14N    basis set group =>   3
Atom  15C    basis set group =>   1
Atom  16C    basis set group =>   1
Atom  17H    basis set group =>   4
Atom  18H    basis set group =>   4
Atom  19H    basis set group =>   4
Atom  20H    basis set group =>   4
Atom  21H    basis set group =>   4
Atom  22H    basis set group =>   4
Atom  23H    basis set group =>   4
Atom  24H    basis set group =>   4
Atom  25H    basis set group =>   4
Atom  26H    basis set group =>   4
---------------------------------
AUXILIARY/C BASIS SET INFORMATION
---------------------------------
There are 4 groups of distinct atoms

 Group   1 Type C   : 9s7p6d4f2g contracted to 9s7p6d4f2g pattern {111111111/1111111/111111/1111/11}
 Group   2 Type S   : 11s9p8d6f3g contracted to 11s9p8d6f3g pattern {11111111111/111111111/11111111/111111/111}
 Group   3 Type N   : 9s7p6d4f2g contracted to 9s7p6d4f2g pattern {111111111/1111111/111111/1111/11}
 Group   4 Type H   : 4s3p2d1f contracted to 4s3p2d1f pattern {1111/111/11/1}

Atom   0C    basis set group =>   1
Atom   1C    basis set group =>   1
Atom   2C    basis set group =>   1
Atom   3C    basis set group =>   1
Atom   4C    basis set group =>   1
Atom   5C    basis set group =>   1
Atom   6S    basis set group =>   2
Atom   7C    basis set group =>   1
Atom   8C    basis set group =>   1
Atom   9C    basis set group =>   1
Atom  10C    basis set group =>   1
Atom  11N    basis set group =>   3
Atom  12C    basis set group =>   1
Atom  13C    basis set group =>   1
Atom  14N    basis set group =>   3
Atom  15C    basis set group =>   1
Atom  16C    basis set group =>   1
Atom  17H    basis set group =>   4
Atom  18H    basis set group =>   4
Atom  19H    basis set group =>   4
Atom  20H    basis set group =>   4
Atom  21H    basis set group =>   4
Atom  22H    basis set group =>   4
Atom  23H    basis set group =>   4
Atom  24H    basis set group =>   4
Atom  25H    basis set group =>   4
Atom  26H    basis set group =>   4


           ************************************************************
           *        Program running with 4 parallel MPI-processes     *
           *              working on a common directory               *
           ************************************************************
------------------------------------------------------------------------------
                           ORCA GTO INTEGRAL CALCULATION
                           -- RI-GTO INTEGRALS CHOSEN --
------------------------------------------------------------------------------
------------------------------------------------------------------------------
                   ___                                                        
                  /   \      - P O W E R E D   B Y -                         
                 /     \                                                     
                 |  |  |   _    _      __       _____    __    __             
                 |  |  |  | |  | |    /  \     |  _  \  |  |  /  |          
                  \  \/   | |  | |   /    \    | | | |  |  | /  /          
                 / \  \   | |__| |  /  /\  \   | |_| |  |  |/  /          
                |  |  |   |  __  | /  /__\  \  |    /   |      \           
                |  |  |   | |  | | |   __   |  |    \   |  |\   \          
                \     /   | |  | | |  |  |  |  | |\  \  |  | \   \       
                 \___/    |_|  |_| |__|  |__|  |_| \__\ |__|  \__/        
                                                                              
                      - O R C A' S   B I G   F R I E N D -                    
                                      &                                       
                       - I N T E G R A L  F E E D E R -                       
                                                                              
 v1 FN, 2020, v2 2021                                                         
------------------------------------------------------------------------------


Reading SHARK input file pbe0-train-18.SHARKINP.tmp ... ok
----------------------
SHARK INTEGRAL PACKAGE
----------------------

Number of atoms                             ...     27
Number of basis functions                   ...   1047
Number of shells                            ...    411
Maximum angular momentum                    ...      3
Integral batch strategy                     ... SHARK/LIBINT Hybrid
RI-J (if used) integral strategy            ... SPLIT-RIJ (Revised 2003 algorithm where possible)
Printlevel                                  ...      1
Contraction scheme used                     ... PARTIAL GENERAL contraction
Coulomb Range Separation                    ... NOT USED
Exchange Range Separation                   ... NOT USED
Finite Nucleus Model                        ... NOT USED
Auxiliary Coulomb fitting basis             ... AVAILABLE
   # of basis functions in Aux-J            ...   1685
   # of shells in Aux-J                     ...    537
   Maximum angular momentum in Aux-J        ...      4
Auxiliary J/K fitting basis                 ... NOT available
Auxiliary Correlation fitting basis         ... AVAILABLE
   # of basis functions in Aux-C            ...   2143
   # of shells in Aux-C                     ...    585
   Maximum angular momentum in Aux-C        ...      4
Auxiliary 'external' fitting basis          ... NOT available
Integral threshold                          ...     2.500000e-11
Primitive cut-off                           ...     2.500000e-12
Primitive pair pre-selection threshold      ...     2.500000e-12

Calculating pre-screening integrals         ... done (  0.2 sec) Dimension = 411
Calculating pre-screening integrals (ORCA)  ... done (  0.5 sec) Dimension = 300
Organizing shell pair data                  ... done (  1.3 sec)
Shell pair information
Total number of shell pairs                 ...     84666
Shell pairs after pre-screening             ...     55752
Total number of primitive shell pairs       ...    107494
Primitive shell pairs kept                  ...     64721
          la=0 lb=0:  12544 shell pairs
          la=1 lb=0:  14355 shell pairs
          la=1 lb=1:   3580 shell pairs
          la=2 lb=0:   9299 shell pairs
          la=2 lb=1:   4585 shell pairs
          la=2 lb=2:   1520 shell pairs
          la=3 lb=0:   5135 shell pairs
          la=3 lb=1:   2565 shell pairs
          la=3 lb=2:   1684 shell pairs
          la=3 lb=3:    485 shell pairs

Calculating one electron integrals          ... done (  0.2 sec)
Calculating RI/J V-Matrix + Cholesky decomp.... done (  0.4 sec)
Calculating RI/C V-Matrix + Cholesky decomp.... done (  0.4 sec)
Calculating Nuclear repulsion               ... done (  0.0 sec) ENN=   1151.906837398700 Eh

SHARK setup successfully completed in   5.8 seconds

Maximum memory used throughout the entire GTOINT-calculation: 91.4 MB


           ************************************************************
           *        Program running with 4 parallel MPI-processes     *
           *              working on a common directory               *
           ************************************************************
-------------------------------------------------------------------------------
                                 ORCA SCF
-------------------------------------------------------------------------------

------------
SCF SETTINGS
------------
Hamiltonian:
 Density Functional     Method          .... DFT(GTOs)
 Exchange Functional    Exchange        .... PBE
   PBE kappa parameter   XKappa         ....  0.804000
   PBE mue parameter    XMuePBE         ....  0.219520
 Correlation Functional Correlation     .... PBE
   PBE beta parameter  CBetaPBE         ....  0.066725
 LDA part of GGA corr.  LDAOpt          .... PW91-LDA
 Gradients option       PostSCFGGA      .... off
 Hybrid DFT is turned on
   Fraction HF Exchange ScalHFX         ....  0.250000
   Scaling of DF-GGA-X  ScalDFX         ....  0.750000
   Scaling of DF-GGA-C  ScalDFC         ....  1.000000
   Scaling of DF-LDA-C  ScalLDAC        ....  1.000000
   Perturbative correction              ....  0.000000
   Density functional embedding theory  .... OFF
   NL short-range parameter             ....  6.900000
 RI-approximation to the Coulomb term is turned on
   Number of AuxJ basis functions       .... 1685
   RIJ-COSX (HFX calculated with COS-X)).... on


General Settings:
 Integral files         IntName         .... pbe0-train-18
 Hartree-Fock type      HFTyp           .... RHF
 Total Charge           Charge          ....    0
 Multiplicity           Mult            ....    1
 Number of Electrons    NEL             ....  124
 Basis Dimension        Dim             ....  926
 Nuclear Repulsion      ENuc            ....   1151.9068373987 Eh

Convergence Acceleration:
 DIIS                   CNVDIIS         .... on
   Start iteration      DIISMaxIt       ....    12
   Startup error        DIISStart       ....  0.200000
   # of expansion vecs  DIISMaxEq       ....     5
   Bias factor          DIISBfac        ....   1.050
   Max. coefficient     DIISMaxC        ....  10.000
 Trust-Rad. Augm. Hess. CNVTRAH         .... auto
   Auto Start mean grad. ratio tolernc. ....  1.125000
   Auto Start start iteration           ....    20
   Auto Start num. interpolation iter.  ....    10
   Max. Number of Micro iterations      ....    16
   Max. Number of Macro iterations      .... Maxiter - #DIIS iter
   Number of Davidson start vectors     ....     2
   Converg. threshold I  (grad. norm)   ....   1.000e-05
   Converg. threshold II (energy diff.) ....   1.000e-08
   Grad. Scal. Fac. for Micro threshold ....   0.100
   Minimum threshold for Micro iter.    ....   0.010
   NR start threshold (gradient norm)   ....   0.001
   Initial trust radius                 ....   0.400
   Minimum AH scaling param. (alpha)    ....   1.000
   Maximum AH scaling param. (alpha)    .... 1000.000
   Orbital update algorithm             .... Taylor
   White noise on init. David. guess    .... on
   Maximum white noise                  ....   0.010
   Quad. conv. algorithm                .... NR
 SOSCF                  CNVSOSCF        .... on
   Start iteration      SOSCFMaxIt      ....   150
   Startup grad/error   SOSCFStart      ....  0.003300
 Level Shifting         CNVShift        .... on
   Level shift para.    LevelShift      ....    0.2500
   Turn off err/grad.   ShiftErr        ....    0.0010
 Zerner damping         CNVZerner       .... off
 Static damping         CNVDamp         .... on
   Fraction old density DampFac         ....    0.7000
   Max. Damping (<1)    DampMax         ....    0.9800
   Min. Damping (>=0)   DampMin         ....    0.0000
   Turn off err/grad.   DampErr         ....    0.1000
 Fernandez-Rico         CNVRico         .... off

SCF Procedure:
 Maximum # iterations   MaxIter         ....   125
 SCF integral mode      SCFMode         .... Direct
   Integral package                     .... SHARK and LIBINT hybrid scheme
 Reset frequency        DirectResetFreq ....    20
 Integral Threshold     Thresh          ....  2.500e-11 Eh
 Primitive CutOff       TCut            ....  2.500e-12 Eh

Convergence Tolerance:
 Convergence Check Mode ConvCheckMode   .... Total+1el-Energy
 Convergence forced     ConvForced      .... 0
 Energy Change          TolE            ....  1.000e-08 Eh
 1-El. energy change                    ....  1.000e-05 Eh
 Orbital Gradient       TolG            ....  1.000e-05
 Orbital Rotation angle TolX            ....  1.000e-05
 DIIS Error             TolErr          ....  5.000e-07


Diagonalization of the overlap matrix:
Smallest eigenvalue                        ... 9.352e-07
Time for diagonalization                   ...    0.265 sec
Threshold for overlap eigenvalues          ... 1.000e-08
Number of eigenvalues below threshold      ... 0
Time for construction of square roots      ...    0.151 sec
Total time needed                          ...    0.421 sec

Time for model grid setup =    0.552 sec

------------------------------
INITIAL GUESS: MODEL POTENTIAL
------------------------------
Loading Hartree-Fock densities                     ... done
Calculating cut-offs                               ... done
Initializing the effective Hamiltonian             ... done
Setting up the integral package (SHARK)            ... done
Starting the Coulomb interaction                   ... done (   2.1 sec)
Reading the grid                                   ... done
Mapping shells                                     ... done
Starting the XC term evaluation                    ... done (   1.6 sec)
  promolecular density results
     # of electrons  =    123.993612902
     EX              =   -112.600003577
     EC              =     -4.252583548
     EX+EC           =   -116.852587125
Transforming the Hamiltonian                       ... done (   0.1 sec)
Diagonalizing the Hamiltonian                      ... done (   0.3 sec)
Back transforming the eigenvectors                 ... done (   0.1 sec)
Now organizing SCF variables                       ... done
                      ------------------
                      INITIAL GUESS DONE (   4.8 sec)
                      ------------------
-------------------
DFT GRID GENERATION
-------------------

General Integration Accuracy     IntAcc      ... 4.388
Radial Grid Type                 RadialGrid  ... OptM3 with GC (2021)
Angular Grid (max. ang.)         AngularGrid ... 4 (Lebedev-302)
Angular grid pruning method      GridPruning ... 4 (adaptive)
Weight generation scheme         WeightScheme... Becke
Basis function cutoff            BFCut       ... 1.0000e-11
Integration weight cutoff        WCut        ... 1.0000e-14
Angular grids for H and He will be reduced by one unit
Partially contracted basis set               ... off
Rotationally invariant grid construction     ... off

Total number of grid points                  ...   139398
Total number of batches                      ...     2191
Average number of points per batch           ...       63
Average number of grid points per atom       ...     5163
Time for grid setup =    1.917 sec

--------------------
COSX GRID GENERATION
--------------------

GRIDX 1
-------
General Integration Accuracy     IntAcc      ... 3.816
Radial Grid Type                 RadialGrid  ... OptM3 with GC (2021)
Angular Grid (max. ang.)         AngularGrid ... 1 (Lebedev-50)
Angular grid pruning method      GridPruning ... 4 (adaptive)
Weight generation scheme         WeightScheme... Becke
Basis function cutoff            BFCut       ... 1.0000e-11
Integration weight cutoff        WCut        ... 1.0000e-14
Angular grids for H and He will be reduced by one unit
Partially contracted basis set               ... on
Rotationally invariant grid construction     ... off

Total number of grid points                  ...    17701
Total number of batches                      ...      294
Average number of points per batch           ...       60
Average number of grid points per atom       ...      656
UseSFitting                                  ... on

GRIDX 2
-------
General Integration Accuracy     IntAcc      ... 4.020
Radial Grid Type                 RadialGrid  ... OptM3 with GC (2021)
Angular Grid (max. ang.)         AngularGrid ... 2 (Lebedev-110)
Angular grid pruning method      GridPruning ... 4 (adaptive)
Weight generation scheme         WeightScheme... Becke
Basis function cutoff            BFCut       ... 1.0000e-11
Integration weight cutoff        WCut        ... 1.0000e-14
Angular grids for H and He will be reduced by one unit
Partially contracted basis set               ... on
Rotationally invariant grid construction     ... off

Total number of grid points                  ...    42522
Total number of batches                      ...      676
Average number of points per batch           ...       62
Average number of grid points per atom       ...     1575
UseSFitting                                  ... on

GRIDX 3
-------
General Integration Accuracy     IntAcc      ... 4.338
Radial Grid Type                 RadialGrid  ... OptM3 with GC (2021)
Angular Grid (max. ang.)         AngularGrid ... 3 (Lebedev-194)
Angular grid pruning method      GridPruning ... 4 (adaptive)
Weight generation scheme         WeightScheme... Becke
Basis function cutoff            BFCut       ... 1.0000e-11
Integration weight cutoff        WCut        ... 1.0000e-14
Angular grids for H and He will be reduced by one unit
Partially contracted basis set               ... on
Rotationally invariant grid construction     ... off

Total number of grid points                  ...    92404
Total number of batches                      ...     1459
Average number of points per batch           ...       63
Average number of grid points per atom       ...     3422
UseSFitting                                  ... on

Time for X-Grid setup             =    4.629 sec


--------------------
CPCM SOLVATION MODEL
--------------------
CPCM parameters:
  Epsilon                                         ...      24.8520
  Refrac                                          ...       1.3611
  Rsolv                                           ...       1.3000
  Surface type                                    ... GAUSSIAN VDW
  Epsilon function type                           ...         CPCM
Solvent:                                     ... ETHANOL
SMD-CDS solvent descriptors:
  Soln                                       ...    1.3611
  Soln25                                     ...    1.3593
  Sola                                       ...    0.3700
  Solb                                       ...    0.4800
  Solg                                       ...   31.6200
  Solc                                       ...    0.0000
  Solh                                       ...    0.0000
Radii:
 Radius for C  used is    3.4960 Bohr (=   1.8500 Ang.)
 Radius for S  used is    4.7054 Bohr (=   2.4900 Ang.)
 Radius for N  used is    3.5716 Bohr (=   1.8900 Ang.)
 Radius for H  used is    2.2677 Bohr (=   1.2000 Ang.)
Calculating surface                               ...        done! (  0.0s)
GEPOL surface points                              ...         1544
GEPOL Volume                                      ...    1722.1956
GEPOL Surface-area                                ...     932.7786
Calculating surface distance matrix               ...        done! (  0.0s)
Performing Cholesky decomposition & store         ...        done! (  0.2s)
Overall time for CPCM initialization              ...                 0.2s
 re-compute Schwartz prescreening matrix in partically contracted basis (1) ...done (   0.207 sec)
--------------
SCF ITERATIONS
--------------
ITER       Energy         Delta-E        Max-DP      RMS-DP      [F,P]     Damp
               ***  Starting incremental Fock matrix formation  ***
  0  -1046.1762349615   0.000000000000 0.36443865  0.00122014  0.2211330 0.7000
  1  -1046.3487559484  -0.172520986920 0.25979043  0.00089939  0.1019693 0.7000
                               ***Turning on DIIS***
  2  -1046.4224182311  -0.073662282633 0.52692314  0.00190120  0.0381126 0.0000
  3  -1046.5282692604  -0.105851029309 0.08386663  0.00042469  0.0476218 0.0000
  4  -1046.5574264388  -0.029157178438 0.01847389  0.00015185  0.0099397 0.0000
  5  -1046.5587364286  -0.001309989783 0.00774857  0.00005375  0.0069528 0.0000
                      *** Initiating the SOSCF procedure ***
                           *** Shutting down DIIS ***
                      *** Re-Reading the Fockian *** 
                      *** Removing any level shift *** 
ITER      Energy       Delta-E        Grad      Rot      Max-DP    RMS-DP
  6  -1046.55889624  -0.0001598116  0.000432  0.000432  0.008910  0.000033
               *** Restarting incremental Fock matrix formation ***
  7  -1046.55889199   0.0000042458  0.000279  0.001757  0.030504  0.000477
  8  -1046.55889686  -0.0000048691  0.000105  0.000737  0.008919  0.000138
  9  -1046.55889729  -0.0000004270  0.000104  0.000247  0.008161  0.000125
 10  -1046.55889782  -0.0000005344  0.000021  0.000090  0.006708  0.000028
 11  -1046.55889778   0.0000000444  0.000029  0.000083  0.006016  0.000023
 12  -1046.55889782  -0.0000000353  0.000003  0.000013  0.006987  0.000028
 13  -1046.55889786  -0.0000000447  0.000003  0.000005  0.004915  0.000021
                  ***Gradient check signals convergence***
              ***Rediagonalizing the Fockian in SOSCF/NRSCF***

               *****************************************************
               *                     SUCCESS                       *
               *           SCF CONVERGED AFTER  14 CYCLES          *
               *****************************************************

Old exchange energy                            =    -28.616624245 Eh
New exchange energy                            =    -28.616604511 Eh
Exchange energy change after final integration =      0.000019734 Eh
Total energy after final integration           =  -1046.558878095 Eh
Final COS-X integration done in                =   102.469 sec

SMD CDS free energy correction energy :                -1.63987     Kcal/mol
Total Energy after SMD CDS correction =             -1046.561491392 Eh

----------------
TOTAL SCF ENERGY
----------------

Total Energy       :        -1046.56149139 Eh          -28478.38599 eV

Components:
Nuclear Repulsion  :         1151.90683740 Eh           31344.97859 eV
Electronic Energy  :        -2198.46832879 Eh          -59823.36459 eV
One Electron Energy:        -3714.28892815 Eh         -101070.94008 eV
Two Electron Energy:         1515.82059936 Eh           41247.57549 eV
Max COSX asymmetry :            0.00002997 Eh               0.00082 eV
CPCM Dielectric    :           -0.01850205 Eh              -0.50347 eV
SMD CDS (Gcds)     :           -0.00261330 Eh              -0.07111 eV

Virial components:
Potential Energy   :        -2088.56984226 Eh          -56832.87474 eV
Kinetic Energy     :         1042.00835087 Eh           28354.48874 eV
Virial Ratio       :            2.00436958


DFT components:
N(Alpha)           :       62.000080591659 electrons
N(Beta)            :       62.000080591659 electrons
N(Total)           :      124.000161183318 electrons
E(X)               :      -85.587292908320 Eh       
E(C)               :       -4.255366376574 Eh       
E(XC)              :      -89.842659284894 Eh       
DFET-embed. en.    :        0.000000000000 Eh       
CPCM Solvation Model Properties:
Surface-charge          :           -0.05029402
Charge-correction       :            0.00019403 Eh               0.00528 eV
Free-energy (cav+disp)  :           -0.00261330 Eh              -0.07111 eV

---------------
SCF CONVERGENCE
---------------

  Last Energy change         ...    3.1531e-08  Tolerance :   1.0000e-08
  Last MAX-Density change    ...    3.7748e-15  Tolerance :   1.0000e-07
  Last RMS-Density change    ...    1.4590e-17  Tolerance :   5.0000e-09
  Last Orbital Gradient      ...    1.7099e-06  Tolerance :   1.0000e-05
  Last Orbital Rotation      ...    3.0138e-06  Tolerance :   1.0000e-05

             **** THE GBW FILE WAS UPDATED (pbe0-train-18.gbw) ****
             **** DENSITY pbe0-train-18.scfp WAS UPDATED ****
             **** ENERGY FILE WAS UPDATED (pbe0-train-18.en.tmp) ****
             **** THE GBW FILE WAS UPDATED (pbe0-train-18.gbw) ****
             **** DENSITY pbe0-train-18.scfp WAS UPDATED ****
----------------
ORBITAL ENERGIES
----------------

  NO   OCC          E(Eh)            E(eV) 
   0   2.0000     -89.097394     -2424.4633 
   1   2.0000     -14.397912      -391.7871 
   2   2.0000     -14.390063      -391.5735 
   3   2.0000     -10.306547      -280.4554 
   4   2.0000     -10.274721      -279.5894 
   5   2.0000     -10.268124      -279.4099 
   6   2.0000     -10.264685      -279.3163 
   7   2.0000     -10.263684      -279.2890 
   8   2.0000     -10.262796      -279.2649 
   9   2.0000     -10.244930      -278.7787 
  10   2.0000     -10.243245      -278.7329 
  11   2.0000     -10.239753      -278.6379 
  12   2.0000     -10.230273      -278.3799 
  13   2.0000     -10.228311      -278.3265 
  14   2.0000     -10.227892      -278.3151 
  15   2.0000     -10.227217      -278.2967 
  16   2.0000     -10.226900      -278.2881 
  17   2.0000      -8.054348      -219.1700 
  18   2.0000      -5.990793      -163.0178 
  19   2.0000      -5.987393      -162.9252 
  20   2.0000      -5.985644      -162.8776 
  21   2.0000      -1.016953       -27.6727 
  22   2.0000      -0.985301       -26.8114 
  23   2.0000      -0.895167       -24.3587 
  24   2.0000      -0.861843       -23.4519 
  25   2.0000      -0.835335       -22.7306 
  26   2.0000      -0.806957       -21.9584 
  27   2.0000      -0.793824       -21.6011 
  28   2.0000      -0.774946       -21.0873 
  29   2.0000      -0.747665       -20.3450 
  30   2.0000      -0.676102       -18.3977 
  31   2.0000      -0.668045       -18.1784 
  32   2.0000      -0.643831       -17.5195 
  33   2.0000      -0.625447       -17.0193 
  34   2.0000      -0.599963       -16.3258 
  35   2.0000      -0.579352       -15.7650 
  36   2.0000      -0.551780       -15.0147 
  37   2.0000      -0.532306       -14.4848 
  38   2.0000      -0.509224       -13.8567 
  39   2.0000      -0.491692       -13.3796 
  40   2.0000      -0.486391       -13.2354 
  41   2.0000      -0.467560       -12.7229 
  42   2.0000      -0.462082       -12.5739 
  43   2.0000      -0.461225       -12.5506 
  44   2.0000      -0.446555       -12.1514 
  45   2.0000      -0.436216       -11.8700 
  46   2.0000      -0.434926       -11.8349 
  47   2.0000      -0.427413       -11.6305 
  48   2.0000      -0.418381       -11.3847 
  49   2.0000      -0.397449       -10.8151 
  50   2.0000      -0.395725       -10.7682 
  51   2.0000      -0.376822       -10.2539 
  52   2.0000      -0.360650        -9.8138 
  53   2.0000      -0.352329        -9.5874 
  54   2.0000      -0.339122        -9.2280 
  55   2.0000      -0.316801        -8.6206 
  56   2.0000      -0.301935        -8.2161 
  57   2.0000      -0.286475        -7.7954 
  58   2.0000      -0.283012        -7.7012 
  59   2.0000      -0.282362        -7.6835 
  60   2.0000      -0.272787        -7.4229 
  61   2.0000      -0.233390        -6.3509 
  62   0.0000      -0.074379        -2.0240 
  63   0.0000      -0.041002        -1.1157 
  64   0.0000      -0.019418        -0.5284 
  65   0.0000      -0.010080        -0.2743 
  66   0.0000       0.003029         0.0824 
  67   0.0000       0.009866         0.2685 
  68   0.0000       0.014933         0.4064 
  69   0.0000       0.019940         0.5426 
  70   0.0000       0.021414         0.5827 
  71   0.0000       0.026611         0.7241 
  72   0.0000       0.030588         0.8323 
  73   0.0000       0.034837         0.9480 
  74   0.0000       0.040587         1.1044 
  75   0.0000       0.043483         1.1832 
  76   0.0000       0.048149         1.3102 
  77   0.0000       0.049259         1.3404 
  78   0.0000       0.051496         1.4013 
  79   0.0000       0.055974         1.5231 
  80   0.0000       0.064789         1.7630 
  81   0.0000       0.066204         1.8015 
  82   0.0000       0.067602         1.8396 
  83   0.0000       0.069767         1.8985 
  84   0.0000       0.071162         1.9364 
  85   0.0000       0.078349         2.1320 
  86   0.0000       0.089076         2.4239 
  87   0.0000       0.092605         2.5199 
  88   0.0000       0.094810         2.5799 
  89   0.0000       0.096753         2.6328 
  90   0.0000       0.098294         2.6747 
  91   0.0000       0.104147         2.8340 
  92   0.0000       0.104979         2.8566 
  93   0.0000       0.110052         2.9947 
  94   0.0000       0.115482         3.1424 
  95   0.0000       0.119315         3.2467 
  96   0.0000       0.124131         3.3778 
  97   0.0000       0.126351         3.4382 
  98   0.0000       0.127427         3.4675 
  99   0.0000       0.131067         3.5665 
 100   0.0000       0.131231         3.5710 
 101   0.0000       0.133698         3.6381 
 102   0.0000       0.135934         3.6990 
 103   0.0000       0.140780         3.8308 
 104   0.0000       0.144241         3.9250 
 105   0.0000       0.146884         3.9969 
 106   0.0000       0.151794         4.1305 
 107   0.0000       0.153593         4.1795 
 108   0.0000       0.153823         4.1857 
 109   0.0000       0.154769         4.2115 
 110   0.0000       0.157541         4.2869 
 111   0.0000       0.158261         4.3065 
 112   0.0000       0.161639         4.3984 
 113   0.0000       0.164279         4.4703 
 114   0.0000       0.167632         4.5615 
 115   0.0000       0.169106         4.6016 
 116   0.0000       0.173312         4.7161 
 117   0.0000       0.175406         4.7730 
 118   0.0000       0.176795         4.8108 
 119   0.0000       0.179388         4.8814 
 120   0.0000       0.185022         5.0347 
 121   0.0000       0.186262         5.0685 
 122   0.0000       0.188521         5.1299 
 123   0.0000       0.190734         5.1901 
 124   0.0000       0.195130         5.3098 
 125   0.0000       0.195831         5.3288 
 126   0.0000       0.198723         5.4075 
 127   0.0000       0.200497         5.4558 
 128   0.0000       0.203095         5.5265 
 129   0.0000       0.206508         5.6194 
 130   0.0000       0.216735         5.8977 
 131   0.0000       0.221028         6.0145 
 132   0.0000       0.224749         6.1157 
 133   0.0000       0.227096         6.1796 
 134   0.0000       0.227428         6.1886 
 135   0.0000       0.230605         6.2751 
 136   0.0000       0.235929         6.4200 
 137   0.0000       0.238616         6.4931 
 138   0.0000       0.242819         6.6074 
 139   0.0000       0.246016         6.6944 
 140   0.0000       0.251333         6.8391 
 141   0.0000       0.254076         6.9138 
 142   0.0000       0.257320         7.0020 
 143   0.0000       0.260636         7.0923 
 144   0.0000       0.261063         7.1039 
 145   0.0000       0.263696         7.1755 
 146   0.0000       0.267399         7.2763 
 147   0.0000       0.270252         7.3539 
 148   0.0000       0.275039         7.4842 
 149   0.0000       0.279422         7.6035 
 150   0.0000       0.281536         7.6610 
 151   0.0000       0.284193         7.7333 
 152   0.0000       0.286224         7.7885 
 153   0.0000       0.292917         7.9707 
 154   0.0000       0.294058         8.0017 
 155   0.0000       0.298845         8.1320 
 156   0.0000       0.299217         8.1421 
 157   0.0000       0.304042         8.2734 
 158   0.0000       0.310863         8.4590 
 159   0.0000       0.312353         8.4995 
 160   0.0000       0.318996         8.6803 
 161   0.0000       0.321326         8.7437 
 162   0.0000       0.328103         8.9281 
 163   0.0000       0.330055         8.9812 
 164   0.0000       0.331363         9.0168 
 165   0.0000       0.333907         9.0861 
 166   0.0000       0.334372         9.0987 
 167   0.0000       0.337196         9.1756 
 168   0.0000       0.338241         9.2040 
 169   0.0000       0.345062         9.3896 
 170   0.0000       0.345235         9.3943 
 171   0.0000       0.356574         9.7029 
 172   0.0000       0.356826         9.7097 
 173   0.0000       0.357974         9.7410 
 174   0.0000       0.361617         9.8401 
 175   0.0000       0.368151        10.0179 
 176   0.0000       0.375910        10.2290 
 177   0.0000       0.376172        10.2362 
 178   0.0000       0.380747        10.3606 
 179   0.0000       0.384441        10.4612 
 180   0.0000       0.391938        10.6652 
 181   0.0000       0.391968        10.6660 
 182   0.0000       0.394348        10.7308 
 183   0.0000       0.397212        10.8087 
 184   0.0000       0.401913        10.9366 
 185   0.0000       0.402294        10.9470 
 186   0.0000       0.402519        10.9531 
 187   0.0000       0.407710        11.0943 
 188   0.0000       0.411087        11.1862 
 189   0.0000       0.411457        11.1963 
 190   0.0000       0.415848        11.3158 
 191   0.0000       0.418685        11.3930 
 192   0.0000       0.420362        11.4386 
 193   0.0000       0.425224        11.5709 
 194   0.0000       0.426257        11.5990 
 195   0.0000       0.430531        11.7153 
 196   0.0000       0.433473        11.7954 
 197   0.0000       0.437098        11.8940 
 198   0.0000       0.440560        11.9882 
 199   0.0000       0.441169        12.0048 
 200   0.0000       0.443663        12.0727 
 201   0.0000       0.451188        12.2775 
 202   0.0000       0.453938        12.3523 
 203   0.0000       0.454905        12.3786 
 204   0.0000       0.456392        12.4191 
 205   0.0000       0.462297        12.5797 
 206   0.0000       0.468560        12.7502 
 207   0.0000       0.471796        12.8382 
 208   0.0000       0.477187        12.9849 
 209   0.0000       0.477373        12.9900 
 210   0.0000       0.481826        13.1111 
 211   0.0000       0.489902        13.3309 
 212   0.0000       0.493288        13.4230 
 213   0.0000       0.496526        13.5112 
 214   0.0000       0.500151        13.6098 
 215   0.0000       0.501248        13.6396 
 216   0.0000       0.504549        13.7295 
 217   0.0000       0.507631        13.8133 
 218   0.0000       0.511373        13.9152 
 219   0.0000       0.513236        13.9659 
 220   0.0000       0.517079        14.0704 
 221   0.0000       0.522369        14.2144 
 222   0.0000       0.527935        14.3658 
 223   0.0000       0.529551        14.4098 
 224   0.0000       0.536167        14.5898 
 225   0.0000       0.538719        14.6593 
 226   0.0000       0.545545        14.8450 
 227   0.0000       0.548360        14.9216 
 228   0.0000       0.556869        15.1532 
 229   0.0000       0.557356        15.1664 
 230   0.0000       0.561767        15.2864 
 231   0.0000       0.575903        15.6711 
 232   0.0000       0.578463        15.7408 
 233   0.0000       0.591809        16.1040 
 234   0.0000       0.595325        16.1996 
 235   0.0000       0.603352        16.4180 
 236   0.0000       0.605033        16.4638 
 237   0.0000       0.608727        16.5643 
 238   0.0000       0.610445        16.6111 
 239   0.0000       0.621109        16.9012 
 240   0.0000       0.621467        16.9110 
 241   0.0000       0.628751        17.1092 
 242   0.0000       0.631487        17.1836 
 243   0.0000       0.638236        17.3673 
 244   0.0000       0.644433        17.5359 
 245   0.0000       0.646652        17.5963 
 246   0.0000       0.650875        17.7112 
 247   0.0000       0.653503        17.7827 
 248   0.0000       0.657811        17.8999 
 249   0.0000       0.662480        18.0270 
 250   0.0000       0.665004        18.0957 
 251   0.0000       0.671664        18.2769 
 252   0.0000       0.672895        18.3104 
 253   0.0000       0.682179        18.5630 
 254   0.0000       0.685602        18.6562 
 255   0.0000       0.690095        18.7784 
 256   0.0000       0.693088        18.8599 
 257   0.0000       0.695445        18.9240 
 258   0.0000       0.695927        18.9371 
 259   0.0000       0.701243        19.0818 
 260   0.0000       0.705838        19.2068 
 261   0.0000       0.710075        19.3221 
 262   0.0000       0.714449        19.4412 
[...]
  Split-RI-J                ....      11.308 sec  (  5.3% of F)
  Chain of spheres X        ....     185.179 sec  ( 87.5% of F)
  XC integration            ....       8.952 sec  (  4.2% of F)
    Basis function eval.    ....       1.624 sec  ( 18.1% of XC)
    Density eval.           ....       3.356 sec  ( 37.5% of XC)
    XC-Functional eval.     ....       0.095 sec  (  1.1% of XC)
    XC-Potential eval.      ....       3.608 sec  ( 40.3% of XC)
Diagonalization             ....       0.412 sec  (  0.2%)
Density matrix formation    ....       0.038 sec  (  0.0%)
Population analysis         ....       0.296 sec  (  0.1%)
Initial guess               ....       0.495 sec  (  0.2%)
Orbital Transformation      ....       0.000 sec  (  0.0%)
Orbital Orthonormalization  ....       0.436 sec  (  0.2%)
DIIS solution               ....       0.148 sec  (  0.1%)
SOSCF solution              ....       0.306 sec  (  0.1%)
Grid generation             ....       5.618 sec  (  2.5%)

Maximum memory used throughout the entire SCF-calculation: 237.1 MB


           ************************************************************
           *        Program running with 4 parallel MPI-processes     *
           *              working on a common directory               *
           ************************************************************
------------------------------------------------------------------------------
                        ORCA TD-DFT/TDA CALCULATION
------------------------------------------------------------------------------

Input orbitals are from        ... pbe0-train-18_job2.gbw
CI-vector output               ... pbe0-train-18_job2.cis
Tamm-Dancoff approximation     ... operative
CIS-Integral strategy          ... AO-integrals
Integral handling              ... AO integral Direct
Max. core memory used          ... 4000 MB
Reference state                ... RHF
Generation of triplets         ... off
Follow IRoot                   ... off
Number of operators            ... 1
Orbital ranges used for CIS calculation:
 Operator 0:  Orbitals  21... 61  to  62...925
XAS localization array:
 Operator 0:  Orbitals  -1... -1

-------------------
XC-INTEGRATION GRID
-------------------

General Integration Accuracy     IntAcc      ... 3.467
Radial Grid Type                 RadialGrid  ... OptM3 with GC (2021)
Angular Grid (max. ang.)         AngularGrid ... 1 (Lebedev-50)
Angular grid pruning method      GridPruning ... 4 (adaptive)
Weight generation scheme         WeightScheme... Becke
Basis function cutoff            BFCut       ... 1.0000e-11
Integration weight cutoff        WCut        ... 1.0000e-14
Angular grids for H and He will be reduced by one unit
Partially contracted basis set               ... off
Rotationally invariant grid construction     ... off

Total number of grid points                  ...    20988
Total number of batches                      ...      341
Average number of points per batch           ...       61
Average number of grid points per atom       ...      777

---------------------
COSX-INTEGRATION GRID
---------------------

General Integration Accuracy     IntAcc      ... 3.067
Radial Grid Type                 RadialGrid  ... OptM3 with GC (2021)
Angular Grid (max. ang.)         AngularGrid ... 1 (Lebedev-50)
Angular grid pruning method      GridPruning ... 4 (adaptive)
Weight generation scheme         WeightScheme... Becke
Basis function cutoff            BFCut       ... 1.0000e-11
Integration weight cutoff        WCut        ... 1.0000e-14
Angular grids for H and He will be reduced by one unit
Partially contracted basis set               ... on
Rotationally invariant grid construction     ... off

Total number of grid points                  ...     9495
Total number of batches                      ...      162
Average number of points per batch           ...       58
Average number of grid points per atom       ...      352

---------------
TD-DFT XC SETUP
---------------

DFT calculation                         ... on
Name of the grid file                   ... pbe0-train-18_job2.grid_cis.tmp
Exchange functional (TD-DFT)            ... PBE
   PBE kappa parameter  XKappa (TD-DFT) ...  0.804000
   PBE mue parameter   XMuePBE (TD-DFT) ...  0.219520
Correlation functional (TD-DFT)         ... PBE
   PBE beta parameter CBetaPBE (TD-DFT) ...  0.066725
 LDA part of GGA corr.  LDAOpt (TD-DFT) ... PW91-LDA
Hybrid DFT                              ... on
   Exchange mixing (TD-DFT)             ...  0.250
   GGA exch. scaling (TD-DFT)           ...  0.750
   GGA corr. scaling (TD-DFT)           ...  1.000

Building densities             ... done
Calculating rho(r) on the grid ... done
Building xc-kernel on the grid ... done
                    *** TD-DFT CALCULATION INITIALIZED ***

---------------------------------
    LR-CPCM (non-equilibrium)
---------------------------------

Setting up LR-CPCM             ... done

------------------------
DAVIDSON-DIAGONALIZATION
------------------------

Dimension of the eigenvalue problem            ...  35424
Number of roots to be determined               ...     10
Maximum size of the expansion space            ...     70
Maximum number of iterations                   ...    100
Convergence tolerance for the residual         ...    1.000e-06
Convergence tolerance for the energies         ...    1.000e-06
Orthogonality tolerance                        ...    1.000e-14
Level Shift                                    ...    0.000e+00
Constructing the preconditioner                ... o.k.
Building the initial guess                     ... o.k.
Number of trial vectors determined             ...     70


                       ****Iteration    0****

   Memory handling for direct AO based CIS:
   Memory per vector needed      ...    39 MB
   Memory needed                 ...  1177 MB
   Memory available              ...  4000 MB
   Number of vectors per batch   ...   101
   Number of batches             ...     1
   Time for densities:            0.450
   Time for RI-J (Direct):       14.182
   Time for K (COSX):            78.063
   Time for XC-Integration:      33.257
   Time for LR-CPCM terms:       16.172
   Time for Sigma-Completion:     0.331
   Size of expansion space: 30
   Lowest Energy          :     0.150698146119
   Maximum Energy change  :     0.205226939356 (vector 9)
   Maximum residual norm  :     0.012094047975

                       ****Iteration    1****
   Time for densities:            0.155
   Time for RI-J (Direct):        8.377
   Time for K (COSX):            27.529
   Time for XC-Integration:      11.842
   Time for LR-CPCM terms:        7.367
   Time for Sigma-Completion:     0.111
   Size of expansion space: 40
   Lowest Energy          :     0.141197336082
   Maximum Energy change  :     0.011405528968 (vector 7)
   Maximum residual norm  :     0.000393754065

                       ****Iteration    2****
   Time for densities:            0.158
   Time for RI-J (Direct):        8.456
   Time for K (COSX):            27.650
   Time for XC-Integration:      11.635
   Time for LR-CPCM terms:        7.365
   Time for Sigma-Completion:     0.115
   Size of expansion space: 50
   Lowest Energy          :     0.140819133326
   Maximum Energy change  :     0.000509552970 (vector 7)
   Maximum residual norm  :     0.000041885765

                       ****Iteration    3****
   Time for densities:            0.151
   Time for RI-J (Direct):        8.464
   Time for K (COSX):            27.593
   Time for XC-Integration:      11.425
   Time for LR-CPCM terms:        7.372
   Time for Sigma-Completion:     0.118
   Size of expansion space: 60
   Lowest Energy          :     0.140782083388
   Maximum Energy change  :     0.000063256889 (vector 7)
   Maximum residual norm  :     0.000002176923

                       ****Iteration    4****
   Time for densities:            0.149
   Time for RI-J (Direct):        8.480
   Time for K (COSX):            28.264
   Time for XC-Integration:      11.967
   Time for LR-CPCM terms:        7.442
   Time for Sigma-Completion:     0.110
   Size of expansion space: 70
   Lowest Energy          :     0.140780602109
   Maximum Energy change  :     0.000002379818 (vector 7)
   Maximum residual norm  :     0.000000112925

      *** CONVERGENCE OF RESIDUAL NORM REACHED ***

Storing the converged CI vectors               ... pbe0-train-18_job2.cis1

                 *** DAVIDSON DONE ***

Total time for solving the CIS problem:   366.384sec

------------------------------------
TD-DFT/TDA EXCITED STATES (SINGLETS)
------------------------------------

the weight of the individual excitations are printed if larger than 1.0e-02

STATE  1:  E=   0.140781 au      3.831 eV    30897.8 cm**-1 <S**2> =   0.000000
    61a ->  62a  :     0.943156 (c=  0.97116202)
    61a ->  63a  :     0.024411 (c=  0.15624071)

STATE  2:  E=   0.163922 au      4.461 eV    35976.7 cm**-1 <S**2> =   0.000000
    58a ->  62a  :     0.941910 (c=  0.97052060)
    58a ->  63a  :     0.020494 (c=  0.14315694)
    58a ->  69a  :     0.022491 (c=  0.14997058)

STATE  3:  E=   0.171330 au      4.662 eV    37602.7 cm**-1 <S**2> =   0.000000
    57a ->  62a  :     0.026146 (c= -0.16169816)
    59a ->  62a  :     0.039306 (c= -0.19825660)
    60a ->  62a  :     0.218359 (c= -0.46728854)
    61a ->  62a  :     0.016910 (c= -0.13003930)
    61a ->  63a  :     0.633134 (c=  0.79569736)
    61a ->  64a  :     0.027903 (c=  0.16704333)

STATE  4:  E=   0.174809 au      4.757 eV    38366.2 cm**-1 <S**2> =   0.000000
    56a ->  62a  :     0.087528 (c=  0.29585070)
    57a ->  62a  :     0.035200 (c=  0.18761561)
    59a ->  62a  :     0.057444 (c=  0.23967408)
    60a ->  62a  :     0.627360 (c= -0.79206039)
    60a ->  63a  :     0.016860 (c=  0.12984794)
    61a ->  63a  :     0.097785 (c= -0.31270557)
    61a ->  64a  :     0.022455 (c= -0.14984924)
    61a ->  65a  :     0.032647 (c= -0.18068408)

STATE  5:  E=   0.177064 au      4.818 eV    38860.9 cm**-1 <S**2> =   0.000000
    54a ->  64a  :     0.010423 (c=  0.10209333)
    57a ->  62a  :     0.103961 (c=  0.32242925)
    57a ->  64a  :     0.015891 (c=  0.12605821)
    59a ->  62a  :     0.449454 (c=  0.67041299)
    59a ->  64a  :     0.012251 (c= -0.11068401)
    60a ->  62a  :     0.024709 (c=  0.15719041)
    60a ->  63a  :     0.013591 (c= -0.11658016)
    61a ->  63a  :     0.167351 (c=  0.40908564)
    61a ->  64a  :     0.158960 (c= -0.39869776)

STATE  6:  E=   0.178040 au      4.845 eV    39075.2 cm**-1 <S**2> =   0.000000
    56a ->  62a  :     0.882721 (c= -0.93953229)
    56a ->  69a  :     0.013933 (c=  0.11803847)
    60a ->  62a  :     0.065274 (c= -0.25548756)
    61a ->  65a  :     0.011021 (c= -0.10498231)

STATE  7:  E=   0.183957 au      5.006 eV    40373.9 cm**-1 <S**2> =   0.000000
    57a ->  62a  :     0.016797 (c=  0.12960373)
    57a ->  65a  :     0.012445 (c= -0.11155741)
    60a ->  62a  :     0.058871 (c=  0.24263277)
    60a ->  63a  :     0.348134 (c=  0.59002856)
    60a ->  64a  :     0.011240 (c= -0.10601683)
    61a ->  63a  :     0.027575 (c=  0.16605600)
    61a ->  64a  :     0.016219 (c=  0.12735506)
    61a ->  65a  :     0.469951 (c= -0.68552965)

STATE  8:  E=   0.186774 au      5.082 eV    40992.2 cm**-1 <S**2> =   0.000000
    57a ->  62a  :     0.685005 (c= -0.82765001)
    59a ->  62a  :     0.246340 (c=  0.49632659)
    61a ->  65a  :     0.015766 (c= -0.12556293)

STATE  9:  E=   0.195549 au      5.321 eV    42918.1 cm**-1 <S**2> =   0.000000
    57a ->  62a  :     0.066007 (c=  0.25691740)
    59a ->  62a  :     0.120390 (c=  0.34697241)
    60a ->  63a  :     0.016264 (c= -0.12753145)
    61a ->  64a  :     0.733536 (c=  0.85646705)
    61a ->  65a  :     0.011128 (c=  0.10548985)

STATE 10:  E=   0.200312 au      5.451 eV    43963.5 cm**-1 <S**2> =   0.000000
    58a ->  63a  :     0.194168 (c= -0.44064498)
    58a ->  64a  :     0.783816 (c= -0.88533360)


-----------------------------
TD-DFT/TDA-EXCITATION SPECTRA
-----------------------------

Center of mass = (  0.6775, -0.1354,  0.0296)
Calculating the Dipole integrals                  ... done
Transforming integrals                            ... done
Calculating the Linear Momentum integrals         ... done
Transforming integrals                            ... done
Calculating angular momentum integrals            ... done
Transforming integrals                            ... done

-----------------------------------------------------------------------------
         ABSORPTION SPECTRUM VIA TRANSITION ELECTRIC DIPOLE MOMENTS
-----------------------------------------------------------------------------
State   Energy    Wavelength  fosc         T2        TX        TY        TZ  
        (cm-1)      (nm)                 (au**2)    (au)      (au)      (au) 
-----------------------------------------------------------------------------
   1   30897.8    323.6   0.294569596   3.13860  -1.56186  -0.18335   0.81583
   2   35976.7    278.0   0.003240063   0.02965  -0.02289  -0.16435  -0.04599
   3   37602.7    265.9   0.304987243   2.67017  -1.43242   0.23699  -0.74977
   4   38366.2    260.6   0.185833714   1.59460   1.17601  -0.15144   0.43434
   5   38860.9    257.3   0.224818559   1.90456  -1.37444  -0.03422   0.11956
   6   39075.2    255.9   0.013668334   0.11516   0.31623   0.00251   0.12308
   7   40373.9    247.7   0.017438764   0.14220  -0.30656   0.05232  -0.21326
   8   40992.2    243.9   0.397599173   3.19316  -1.72911  -0.07543   0.44456
   9   42918.1    233.0   0.094241378   0.72290   0.43850  -0.23384   0.68988
  10   43963.5    227.5   0.000052302   0.00039  -0.00660   0.01527  -0.01072

-----------------------------------------------------------------------------
         ABSORPTION SPECTRUM VIA TRANSITION VELOCITY DIPOLE MOMENTS
-----------------------------------------------------------------------------
State   Energy    Wavelength   fosc        P2         PX        PY        PZ  
        (cm-1)      (nm)                 (au**2)     (au)      (au)      (au) 
-----------------------------------------------------------------------------
   1   30897.8    323.6   0.077373046   0.01634   0.12758  -0.00462   0.00634
   2   35976.7    278.0   0.000131674   0.00003   0.00073  -0.00520  -0.00220
   3   37602.7    265.9   0.119626203   0.03074   0.17318  -0.00998   0.02557
   4   38366.2    260.6   0.064942295   0.01703  -0.13004  -0.00224  -0.01066
   5   38860.9    257.3   0.129823930   0.03448   0.18567  -0.00246  -0.00029
   6   39075.2    255.9   0.006260394   0.00167  -0.03569   0.01979   0.00255
   7   40373.9    247.7   0.010215973   0.00282   0.05285  -0.00274   0.00430
   8   40992.2    243.9   0.144020999   0.04035   0.19214   0.01147  -0.05745
   9   42918.1    233.0   0.004198697   0.00123  -0.03165   0.00610  -0.01387
  10   43963.5    227.5   0.000002371   0.00000   0.00016  -0.00070   0.00045

-------------------------------------------------------------------
                             CD SPECTRUM
-------------------------------------------------------------------
State  Energy     Wavelength     R         MX        MY        MZ   
       (cm-1)       (nm)     (1e40*cgs)   (au)      (au)      (au)  
-------------------------------------------------------------------
   1   30897.8    323.6      9.95747  -0.00754  -0.19305  -0.03192
   2   35976.7    278.0      0.85212  -0.12342   0.06560  -0.21230
   3   37602.7    265.9     -2.50199  -0.00525  -0.34150  -0.09082
   4   38366.2    260.6    -58.00377  -0.10469   0.17786   0.06221
   5   38860.9    257.3     -8.38396   0.01287  -0.19504  -0.05666
   6   39075.2    255.9     43.52029   0.30259   0.03888  -0.02824
   7   40373.9    247.7      2.36641  -0.01984  -0.25988  -0.05878
   8   40992.2    243.9     -4.99813   0.00483  -0.03293  -0.01063
   9   42918.1    233.0     13.57535  -0.00933  -0.38913  -0.08423
  10   43963.5    227.5      0.03582  -0.02012   0.00897   0.01808

-------------------------------------------------------------------
         CD SPECTRUM VIA TRANSITION VELOCITY DIPOLE MOMENTS        
-------------------------------------------------------------------
State  Energy     Wavelength     R         MX        MY        MZ   
       (cm-1)       (nm)     (1e40*cgs)   (au)      (au)      (au)  
-------------------------------------------------------------------
   1   30897.8    323.6     -0.91109  -0.00754  -0.19305  -0.03192
   2   35976.7    278.0      0.10215  -0.12342   0.06560  -0.21230
   3   37602.7    265.9      0.48434  -0.00525  -0.34150  -0.09082
   4   38366.2    260.6     33.85337  -0.10469   0.17786   0.06221
   5   38860.9    257.3      7.68349   0.01287  -0.19504  -0.05666
   6   39075.2    255.9    -26.75002   0.30259   0.03888  -0.02824
   7   40373.9    247.7     -1.50939  -0.01984  -0.25988  -0.05878
   8   40992.2    243.9      2.93299   0.00483  -0.03293  -0.01063
   9   42918.1    233.0     -2.19849  -0.00933  -0.38913  -0.08423
  10   43963.5    227.5     -0.00315  -0.02012   0.00897   0.01808

Total run time:      370.912 sec

           *** ORCA-CIS/TD-DFT FINISHED WITHOUT ERROR ***

Maximum memory used throughout the entire CIS-calculation: 1112.2 MB

-----------------------
CIS/TD-DFT TOTAL ENERGY
-----------------------

    E(SCF)  =  -1046.563341750 Eh
    DE(CIS) =      0.140780602 Eh (Root  1)
    ----------------------------- ---------
    E(tot)  =  -1046.422561148 Eh


-------------------------   --------------------
FINAL SINGLE POINT ENERGY     -1046.422561148173
-------------------------   --------------------


                            ***************************************
                            *     ORCA property calculations      *
                            ***************************************

                                    ---------------------
                                    Active property flags
                                    ---------------------
   (+) Dipole Moment


------------------------------------------------------------------------------
                       ORCA ELECTRIC PROPERTIES CALCULATION
------------------------------------------------------------------------------

Dipole Moment Calculation                       ... on
Quadrupole Moment Calculation                   ... off
Polarizability Calculation                      ... off
GBWName                                         ... pbe0-train-18_job2.gbw
Electron density                                ... pbe0-train-18_job2.scfp
The origin for moment calculation is the CENTER OF MASS  = ( 0.677531, -0.135359  0.029632)

-------------
DIPOLE MOMENT
-------------
                                X             Y             Z
Electronic contribution:      6.45503      -1.39688       5.05263
Nuclear contribution   :     -7.72755       1.10238      -3.81052
                        -----------------------------------------
Total Dipole Moment    :     -1.27251      -0.29451       1.24211
                        -----------------------------------------
Magnitude (a.u.)       :      1.80246
Magnitude (Debye)      :      4.58148



--------------------
Rotational spectrum 
--------------------
 
Rotational constants in cm-1:     0.037085     0.006990     0.005891 
Rotational constants in MHz :  1111.786945   209.561355   176.615442 

 Dipole components along the rotational axes: 
x,y,z [a.u.] :    -1.291933    -1.256438    -0.033491 
x,y,z [Debye]:    -3.283834    -3.193612    -0.085128 

 

Timings for individual modules:

Sum of individual times         ...      598.848 sec (=   9.981 min)
GTO integral calculation        ...        4.305 sec (=   0.072 min)   0.7 %
SCF iterations                  ...      222.676 sec (=   3.711 min)  37.2 %
CIS module                      ...      371.866 sec (=   6.198 min)  62.1 %



                             ****ORCA TERMINATED NORMALLY****
TOTAL RUN TIME: 0 days 2 hours 30 minutes 58 seconds 557 msec
