
                                 *****************
                                 * O   R   C   A *
                                 *****************

                                            #,                                       
                                            ###                                      
                                            ####                                     
                                            #####                                    
                                            ######                                   
                                           ########,                                 
                                     ,,################,,,,,                         
                               ,,#################################,,                 
                          ,,##########################################,,             
                       ,#########################################, ''#####,          
                    ,#############################################,,   '####,        
                  ,##################################################,,,,####,       
                ,###########''''           ''''###############################       
              ,#####''   ,,,,##########,,,,          '''####'''          '####       
            ,##' ,,,,###########################,,,                        '##       
           ' ,,###''''                  '''############,,,                           
         ,,##''                                '''############,,,,        ,,,,,,###''
      ,#''                                            '''#######################'''  
     '                                                          ''''####''''         
             ,#######,   #######,   ,#######,      ##                                
            ,#'     '#,  ##    ##  ,#'     '#,    #''#        ######   ,####,        
            ##       ##  ##   ,#'  ##            #'  '#       #        #'  '#        
            ##       ##  #######   ##           ,######,      #####,   #    #        
            '#,     ,#'  ##    ##  '#,     ,#' ,#      #,         ##   #,  ,#        
             '#######'   ##     ##  '#######'  #'      '#     #####' # '####'        



                  #######################################################
                  #                        -***-                        #
                  #          Department of theory and spectroscopy      #
                  #    Directorship and core code : Frank Neese         #
                  #        Max Planck Institute fuer Kohlenforschung    #
                  #                Kaiser Wilhelm Platz 1               #
                  #                 D-45470 Muelheim/Ruhr               #
                  #                      Germany                        #
                  #                                                     #
                  #                  All rights reserved                #
                  #                        -***-                        #
                  #######################################################


                         Program Version 5.0.2 -  RELEASE  -


 With contributions from (in alphabetic order):
   Daniel Aravena         : Magnetic Suceptibility
   Michael Atanasov       : Ab Initio Ligand Field Theory (pilot matlab implementation)
   Alexander A. Auer      : GIAO ZORA, VPT2 properties, NMR spectrum
   Ute Becker             : Parallelization
   Giovanni Bistoni       : ED, misc. LED, open-shell LED, HFLD
   Martin Brehm           : Molecular dynamics
   Dmytro Bykov           : SCF Hessian
   Vijay G. Chilkuri      : MRCI spin determinant printing, contributions to CSF-ICE
   Dipayan Datta          : RHF DLPNO-CCSD density
   Achintya Kumar Dutta   : EOM-CC, STEOM-CC
   Dmitry Ganyushin       : Spin-Orbit,Spin-Spin,Magnetic field MRCI
   Miquel Garcia          : C-PCM and meta-GGA Hessian, CC/C-PCM, Gaussian charge scheme
   Yang Guo               : DLPNO-NEVPT2, F12-NEVPT2, CIM, IAO-localization
   Andreas Hansen         : Spin unrestricted coupled pair/coupled cluster methods
   Benjamin Helmich-Paris : MC-RPA, TRAH-SCF, COSX integrals
   Lee Huntington         : MR-EOM, pCC
   Robert Izsak           : Overlap fitted RIJCOSX, COSX-SCS-MP3, EOM
   Marcus Kettner         : VPT2
   Christian Kollmar      : KDIIS, OOCD, Brueckner-CCSD(T), CCSD density, CASPT2, CASPT2-K
   Simone Kossmann        : Meta GGA functionals, TD-DFT gradient, OOMP2, MP2 Hessian
   Martin Krupicka        : Initial AUTO-CI
   Lucas Lang             : DCDCAS
   Marvin Lechner         : AUTO-CI (C++ implementation), FIC-MRCC
   Dagmar Lenk            : GEPOL surface, SMD
   Dimitrios Liakos       : Extrapolation schemes; Compound Job, initial MDCI parallelization
   Dimitrios Manganas     : Further ROCIS development; embedding schemes
   Dimitrios Pantazis     : SARC Basis sets
   Anastasios Papadopoulos: AUTO-CI, single reference methods and gradients
   Taras Petrenko         : DFT Hessian,TD-DFT gradient, ASA, ECA, R-Raman, ABS, FL, XAS/XES, NRVS
   Peter Pinski           : DLPNO-MP2, DLPNO-MP2 Gradient
   Christoph Reimann      : Effective Core Potentials
   Marius Retegan         : Local ZFS, SOC
   Christoph Riplinger    : Optimizer, TS searches, QM/MM, DLPNO-CCSD(T), (RO)-DLPNO pert. Triples
   Tobias Risthaus        : Range-separated hybrids, TD-DFT gradient, RPA, STAB
   Michael Roemelt        : Original ROCIS implementation
   Masaaki Saitow         : Open-shell DLPNO-CCSD energy and density
   Barbara Sandhoefer     : DKH picture change effects
   Avijit Sen             : IP-ROCIS
   Kantharuban Sivalingam : CASSCF convergence, NEVPT2, FIC-MRCI
   Bernardo de Souza      : ESD, SOC TD-DFT
   Georgi Stoychev        : AutoAux, RI-MP2 NMR, DLPNO-MP2 response
   Willem Van den Heuvel  : Paramagnetic NMR
   Boris Wezisla          : Elementary symmetry handling
   Frank Wennmohs         : Technical directorship


 We gratefully acknowledge several colleagues who have allowed us to
 interface, adapt or use parts of their codes:
   Stefan Grimme, W. Hujo, H. Kruse, P. Pracht,  : VdW corrections, initial TS optimization,
                  C. Bannwarth, S. Ehlert          DFT functionals, gCP, sTDA/sTD-DF
   Ed Valeev, F. Pavosevic, A. Kumar             : LibInt (2-el integral package), F12 methods
   Garnet Chan, S. Sharma, J. Yang, R. Olivares  : DMRG
   Ulf Ekstrom                                   : XCFun DFT Library
   Mihaly Kallay                                 : mrcc  (arbitrary order and MRCC methods)
   Jiri Pittner, Ondrej Demel                    : Mk-CCSD
   Frank Weinhold                                : gennbo (NPA and NBO analysis)
   Christopher J. Cramer and Donald G. Truhlar   : smd solvation model
   Lars Goerigk                                  : TD-DFT with DH, B97 family of functionals
   V. Asgeirsson, H. Jonsson                     : NEB implementation
   FAccTs GmbH                                   : IRC, NEB, NEB-TS, DLPNO-Multilevel, CI-OPT
                                                   MM, QMMM, 2- and 3-layer-ONIOM, Crystal-QMMM,
                                                   LR-CPCM, SF, NACMEs, symmetry and pop. for TD-DFT,
                                                   nearIR, NL-DFT gradient (VV10), updates on ESD,
                                                   ML-optimized integration grids
   S Lehtola, MJT Oliveira, MAL Marques          : LibXC Library
   Liviu Ungur et al                             : ANISO software


 Your calculation uses the libint2 library for the computation of 2-el integrals
 For citations please refer to: http://libint.valeyev.net

 Your ORCA version has been built with support for libXC version: 5.1.0
 For citations please refer to: https://tddft.org/programs/libxc/

 This ORCA versions uses:
   CBLAS   interface :  Fast vector & matrix operations
   LAPACKE interface :  Fast linear algebra routines
   SCALAPACK package :  Parallel linear algebra routines
   Shared memory     :  Shared parallel matrices
   BLAS/LAPACK       :  OpenBLAS 0.3.15  USE64BITINT DYNAMIC_ARCH NO_AFFINITY Haswell SINGLE_THREADED
        Core in use  :  Haswell
   Copyright (c) 2011-2014, The OpenBLAS Project


Your calculation utilizes the atom-pairwise dispersion correction
with the zero-damping scheme (D30)
Cite in your paper:
S.Grimme, J.Antony, S.Ehrlich and H.Krieg, J.Chem.Phys., 132, (2010), 154104 
   

Your calculation utilizes the SMD solvation module
Please cite in your paper:
A.V. Marenich, C.J. Cramer, D.G. Truhlar J. Phys. Chem. B, 113, (2009), 6378 

XCFun DFT library Copyright 2009-2010 Ulf Ekstrom and contributors.
See http://admol.org/xcfun for more information.
This is free software; see the source code for copying conditions.
There is ABSOLUTELY NO WARRANTY; not even for MERCHANTABILITY or FITNESS FOR A PARTICULAR PURPOSE.
For details see the documentation.
Scientific users of this library should cite U. Ekstrom, L. Visscher, R. Bast, A. J. Thorvaldsen and K. Ruud;
J.Chem.Theor.Comp. 2010, DOI: 10.1021/ct100117s
XCFun Version 0.99 

================================================================================

----- Orbital basis set information -----
Your calculation utilizes the basis: aug-cc-pVTZ 
    H, B-Ne : Obtained from the ccRepo (grant-hill.group.shef.ac.uk/ccrepo) Feb. 2017
              R. A. Kendall, T. H. Dunning, Jr., R. J. Harrison, J. Chem. Phys. 96, 6796 (1992)
         He : Obtained from the ccRepo (grant-hill.group.shef.ac.uk/ccrepo) Feb. 2017
              D. E. Woon, T. H. Dunning, Jr., J. Chem. Phys. 100, 2975 (1994)
  Li-Be, Na : Obtained from the ccRepo (grant-hill.group.shef.ac.uk/ccrepo) Feb. 2017
              B. P. Prascher, D. E. Woon, K. A. Peterson, T. H. Dunning, Jr., A. K. Wilson, Theor. Chem. Acc. 128, 69 (2011)
         Mg : Obtained from the Peterson Research Group Website (tyr0.chem.wsu.edu/~kipeters) Feb. 2017
              B. P. Prascher, D. E. Woon, K. A. Peterson, T. H. Dunning, Jr., A. K. Wilson, Theor. Chem. Acc. 128, 69 (2011)
      Al-Ar : Obtained from the ccRepo (grant-hill.group.shef.ac.uk/ccrepo) Feb. 2017
              D. E. Woon, T. H. Dunning, Jr., J. Chem. Phys. 98, 1358 (1993)
      Sc-Zn : Obtained from the ccRepo (grant-hill.group.shef.ac.uk/ccrepo) Feb. 2017
              N. B. Balabanov, K. A. Peterson, J. Chem. Phys. 123, 064107 (2005)
              N. B. Balabanov, K. A. Peterson, J. Chem. Phys. 125, 074110 (2006)
      Ga-Kr : Obtained from the ccRepo (grant-hill.group.shef.ac.uk/ccrepo) Feb. 2017
              A. K. Wilson, D. E. Woon, K. A. Peterson, T. H. Dunning, Jr., J. Chem. Phys. 110, 7667 (1999)
     Ag, Au : Obtained from the Peterson Research Group Website (tyr0.chem.wsu.edu/~kipeters) Feb. 2017
              K. A. Peterson, C. Puzzarini, Theor. Chem. Acc. 114, 283 (2005)

The basis set includes element-specific modifications.

Your calculation utilizes the basis: cc-pVTZ 
       H, B-Ne : Obtained from the ccRepo (grant-hill.group.shef.ac.uk/ccrepo) Feb. 2017
                 T. H. Dunning, Jr., J. Chem. Phys. 90, 1007 (1989)
            He : Obtained from the ccRepo (grant-hill.group.shef.ac.uk/ccrepo) Feb. 2017
                 D. E. Woon, T. H. Dunning, Jr., J. Chem. Phys. 100, 2975 (1994)
  Li-Be, Na-Mg : Obtained from the ccRepo (grant-hill.group.shef.ac.uk/ccrepo) Feb. 2017
                 B. P. Prascher, D. E. Woon, K. A. Peterson, T. H. Dunning, Jr., A. K. Wilson, Theor. Chem. Acc. 128, 69 (2011)
         Al-Ar : Obtained from the ccRepo (grant-hill.group.shef.ac.uk/ccrepo) Feb. 2017
                 D. E. Woon, T. H. Dunning, Jr., J. Chem. Phys. 98, 1358 (1993)
            Ca : Obtained from the Peterson Research Group Website (tyr0.chem.wsu.edu/~kipeters) Feb. 2017
                 J. Koput, K. A. Peterson, J. Phys. Chem. 106, 9595 (2002)
         Sc-Zn : Obtained from the ccRepo (grant-hill.group.shef.ac.uk/ccrepo) Feb. 2017
                 N. B. Balabanov, K. A. Peterson, J. Chem. Phys. 123, 064107 (2005)
                 N. B. Balabanov, K. A. Peterson, J. Chem. Phys. 125, 074110 (2006)
         Ga-Kr : Obtained from the ccRepo (grant-hill.group.shef.ac.uk/ccrepo) Feb. 2017
                 A. K. Wilson, D. E. Woon, K. A. Peterson, T. H. Dunning, Jr., J. Chem. Phys. 110, 7667 (1999)
             Y : Obtained from the ccRepo (grant-hill.group.shef.ac.uk/ccrepo) Feb. 2017
                 K. A. Peterson, D. Figgen, M. Dolg, H. Stoll, J. Chem. Phys. 126, 124101 (2007)
        Ag, Au : Obtained from the Peterson Research Group Website (tyr0.chem.wsu.edu/~kipeters) Feb. 2017
                 K. A. Peterson, C. Puzzarini, Theor. Chem. Acc. 114, 283 (2005)

----- AuxJ basis set information -----
Your calculation utilizes the auxiliary basis: aug-cc-pVTZ/JK 
  H, B-F, Al-Cl, Ga-Br : Obtained from the TURBOMOLE 7.0 basis set library

The basis set includes element-specific modifications.

Your calculation utilizes the auxiliary basis: cc-pVTZ/JK 
  H, B-F, Al-Cl, Ga-Br : Obtained from the TURBOMOLE 7.0 basis set library

----- AuxC basis set information -----
Your calculation utilizes the auxiliary basis: aug-cc-pVTZ/C 
  H-He, B-F, Al-Ar, Ga-Kr : Obtained from the EMSL Basis Set Exchange (bse.pnl.gov) Feb. 2017
                            F. Weigend, A. Kohn, C. Hattig, J. Chem. Phys. 116, 3175 (2002)
                   Be, Mg : Obtained from the TURBOMOLE 7.0 basis set library
                            C. Haettig, Phys. Chem. Chem. Phys. 7, 59 (2005)
                       Ne : Obtained from the EMSL Basis Set Exchange (bse.pnl.gov) Feb. 2017
                            C. Haettig, Phys. Chem. Chem. Phys. 7, 59 (2005)
                            F. Weigend, A. Kohn, C. Hattig, J. Chem. Phys. 116, 3175 (2002)
                    Sc-Zn : Obtained from the EMSL Basis Set Exchange (bse.pnl.gov) Feb. 2017
                            J. G. Hill, J. A. Platts, J. Chem. Phys. 128, 044104 (2008)

The basis set includes element-specific modifications.

Your calculation utilizes the auxiliary basis: cc-pVTZ/C 
  Obtained from the EMSL Basis Set Exchange (bse.pnl.gov) Feb. 2017
  H-He, B-F, Al-Ar, Ga-Kr : F. Weigend, A. Kohn, C. Hattig, J. Chem. Phys. 116, 3175 (2002)
             Li-Be, Na-Mg : C. Haettig, Phys. Chem. Chem. Phys. 7, 59 (2005)
                       Ne : C. Haettig, Phys. Chem. Chem. Phys. 7, 59 (2005)
                            F. Weigend, A. Kohn, C. Hattig, J. Chem. Phys. 116, 3175 (2002)
                    Sc-Zn : J. G. Hill, J. A. Platts, J. Chem. Phys. 128, 044104 (2008)

================================================================================
                                        WARNINGS
                       Please study these warnings very carefully!
================================================================================


WARNING: Geometry Optimization
  ===> : Switching off AutoStart
         For restart on a previous wavefunction, please use MOREAD

INFO   : the flag for use of the SHARK integral package has been found!



***************************************
The coordinates will be read from file: 
***************************************


Your calculation utilizes the atom-pairwise dispersion correction
with the zero-damping scheme (D30)
Cite in your paper:
S.Grimme, J.Antony, S.Ehrlich and H.Krieg, J.Chem.Phys., 132, (2010), 154104 
   

Your calculation utilizes the SMD solvation module
Please cite in your paper:
A.V. Marenich, C.J. Cramer, D.G. Truhlar J. Phys. Chem. B, 113, (2009), 6378 

XCFun DFT library Copyright 2009-2010 Ulf Ekstrom and contributors.
See http://admol.org/xcfun for more information.
This is free software; see the source code for copying conditions.
There is ABSOLUTELY NO WARRANTY; not even for MERCHANTABILITY or FITNESS FOR A PARTICULAR PURPOSE.
For details see the documentation.
Scientific users of this library should cite U. Ekstrom, L. Visscher, R. Bast, A. J. Thorvaldsen and K. Ruud;
J.Chem.Theor.Comp. 2010, DOI: 10.1021/ct100117s
XCFun Version 0.99 

================================================================================

----- Orbital basis set information -----
Your calculation utilizes the basis: aug-cc-pVTZ 
    H, B-Ne : Obtained from the ccRepo (grant-hill.group.shef.ac.uk/ccrepo) Feb. 2017
              R. A. Kendall, T. H. Dunning, Jr., R. J. Harrison, J. Chem. Phys. 96, 6796 (1992)
         He : Obtained from the ccRepo (grant-hill.group.shef.ac.uk/ccrepo) Feb. 2017
              D. E. Woon, T. H. Dunning, Jr., J. Chem. Phys. 100, 2975 (1994)
  Li-Be, Na : Obtained from the ccRepo (grant-hill.group.shef.ac.uk/ccrepo) Feb. 2017
              B. P. Prascher, D. E. Woon, K. A. Peterson, T. H. Dunning, Jr., A. K. Wilson, Theor. Chem. Acc. 128, 69 (2011)
         Mg : Obtained from the Peterson Research Group Website (tyr0.chem.wsu.edu/~kipeters) Feb. 2017
              B. P. Prascher, D. E. Woon, K. A. Peterson, T. H. Dunning, Jr., A. K. Wilson, Theor. Chem. Acc. 128, 69 (2011)
      Al-Ar : Obtained from the ccRepo (grant-hill.group.shef.ac.uk/ccrepo) Feb. 2017
              D. E. Woon, T. H. Dunning, Jr., J. Chem. Phys. 98, 1358 (1993)
      Sc-Zn : Obtained from the ccRepo (grant-hill.group.shef.ac.uk/ccrepo) Feb. 2017
              N. B. Balabanov, K. A. Peterson, J. Chem. Phys. 123, 064107 (2005)
              N. B. Balabanov, K. A. Peterson, J. Chem. Phys. 125, 074110 (2006)
      Ga-Kr : Obtained from the ccRepo (grant-hill.group.shef.ac.uk/ccrepo) Feb. 2017
              A. K. Wilson, D. E. Woon, K. A. Peterson, T. H. Dunning, Jr., J. Chem. Phys. 110, 7667 (1999)
     Ag, Au : Obtained from the Peterson Research Group Website (tyr0.chem.wsu.edu/~kipeters) Feb. 2017
              K. A. Peterson, C. Puzzarini, Theor. Chem. Acc. 114, 283 (2005)

The basis set includes element-specific modifications.

Your calculation utilizes the basis: cc-pVTZ 
       H, B-Ne : Obtained from the ccRepo (grant-hill.group.shef.ac.uk/ccrepo) Feb. 2017
                 T. H. Dunning, Jr., J. Chem. Phys. 90, 1007 (1989)
            He : Obtained from the ccRepo (grant-hill.group.shef.ac.uk/ccrepo) Feb. 2017
                 D. E. Woon, T. H. Dunning, Jr., J. Chem. Phys. 100, 2975 (1994)
  Li-Be, Na-Mg : Obtained from the ccRepo (grant-hill.group.shef.ac.uk/ccrepo) Feb. 2017
                 B. P. Prascher, D. E. Woon, K. A. Peterson, T. H. Dunning, Jr., A. K. Wilson, Theor. Chem. Acc. 128, 69 (2011)
         Al-Ar : Obtained from the ccRepo (grant-hill.group.shef.ac.uk/ccrepo) Feb. 2017
                 D. E. Woon, T. H. Dunning, Jr., J. Chem. Phys. 98, 1358 (1993)
            Ca : Obtained from the Peterson Research Group Website (tyr0.chem.wsu.edu/~kipeters) Feb. 2017
                 J. Koput, K. A. Peterson, J. Phys. Chem. 106, 9595 (2002)
         Sc-Zn : Obtained from the ccRepo (grant-hill.group.shef.ac.uk/ccrepo) Feb. 2017
                 N. B. Balabanov, K. A. Peterson, J. Chem. Phys. 123, 064107 (2005)
                 N. B. Balabanov, K. A. Peterson, J. Chem. Phys. 125, 074110 (2006)
         Ga-Kr : Obtained from the ccRepo (grant-hill.group.shef.ac.uk/ccrepo) Feb. 2017
                 A. K. Wilson, D. E. Woon, K. A. Peterson, T. H. Dunning, Jr., J. Chem. Phys. 110, 7667 (1999)
             Y : Obtained from the ccRepo (grant-hill.group.shef.ac.uk/ccrepo) Feb. 2017
                 K. A. Peterson, D. Figgen, M. Dolg, H. Stoll, J. Chem. Phys. 126, 124101 (2007)
        Ag, Au : Obtained from the Peterson Research Group Website (tyr0.chem.wsu.edu/~kipeters) Feb. 2017
                 K. A. Peterson, C. Puzzarini, Theor. Chem. Acc. 114, 283 (2005)

----- AuxJ basis set information -----
Your calculation utilizes the auxiliary basis: aug-cc-pVTZ/JK 
  H, B-F, Al-Cl, Ga-Br : Obtained from the TURBOMOLE 7.0 basis set library

The basis set includes element-specific modifications.

Your calculation utilizes the auxiliary basis: cc-pVTZ/JK 
  H, B-F, Al-Cl, Ga-Br : Obtained from the TURBOMOLE 7.0 basis set library

----- AuxC basis set information -----
Your calculation utilizes the auxiliary basis: aug-cc-pVTZ/C 
  H-He, B-F, Al-Ar, Ga-Kr : Obtained from the EMSL Basis Set Exchange (bse.pnl.gov) Feb. 2017
                            F. Weigend, A. Kohn, C. Hattig, J. Chem. Phys. 116, 3175 (2002)
                   Be, Mg : Obtained from the TURBOMOLE 7.0 basis set library
                            C. Haettig, Phys. Chem. Chem. Phys. 7, 59 (2005)
                       Ne : Obtained from the EMSL Basis Set Exchange (bse.pnl.gov) Feb. 2017
                            C. Haettig, Phys. Chem. Chem. Phys. 7, 59 (2005)
                            F. Weigend, A. Kohn, C. Hattig, J. Chem. Phys. 116, 3175 (2002)
                    Sc-Zn : Obtained from the EMSL Basis Set Exchange (bse.pnl.gov) Feb. 2017
                            J. G. Hill, J. A. Platts, J. Chem. Phys. 128, 044104 (2008)

The basis set includes element-specific modifications.

Your calculation utilizes the auxiliary basis: cc-pVTZ/C 
  Obtained from the EMSL Basis Set Exchange (bse.pnl.gov) Feb. 2017
  H-He, B-F, Al-Ar, Ga-Kr : F. Weigend, A. Kohn, C. Hattig, J. Chem. Phys. 116, 3175 (2002)
             Li-Be, Na-Mg : C. Haettig, Phys. Chem. Chem. Phys. 7, 59 (2005)
                       Ne : C. Haettig, Phys. Chem. Chem. Phys. 7, 59 (2005)
                            F. Weigend, A. Kohn, C. Hattig, J. Chem. Phys. 116, 3175 (2002)
                    Sc-Zn : J. G. Hill, J. A. Platts, J. Chem. Phys. 128, 044104 (2008)

================================================================================
                                        WARNINGS
                       Please study these warnings very carefully!
================================================================================

INFO   : Checking CIS options ...

INFO   : the flag for use of the SHARK integral package has been found!

================================================================================
                                       INPUT FILE
================================================================================
NAME = wb97x-d3-train-18.inp
|  1> ! wb97x-d3 aug-cc-PVTZ RIJCOSX Opt
|  2> %maxcore 4000
|  3> %basis
|  4>  AuxJ "aug-cc-PVTZ/JK"
|  5>  AuxC "aug-cc-PVTZ/C"
|  6>  newGTO H "cc-PVTZ" end
|  7>  newAuxJGTO H "cc-PVTZ/JK" end
|  8>  newAuxCGTO H "cc-PVTZ/C" end
|  9> end
| 10> %cpcm
| 11>  SMD true
| 12>  SMDsolvent "ethanol"
| 13> end
| 14> %pal nprocs 4 end
| 15> * xyz 0 1
| 16> C         -4.68160        0.30280       -1.06730
| 17> C         -4.55820        0.00650        0.28040
| 18> C         -3.30890       -0.15020        0.84950
| 19> C         -2.15940       -0.01140        0.07290
| 20> C         -0.82380       -0.16900        0.63620
| 21> C         -0.50840       -0.46110        1.94080
| 22> S          1.18340       -0.55520        2.16840
| 23> C          1.37840       -0.18700        0.45350
| 24> C          2.68340       -0.08810       -0.15860
| 25> C          2.79850        0.20500       -1.51980
| 26> C          4.06540        0.29120       -2.06860
| 27> N          5.17790        0.11120       -1.37550
| 28> C          5.06900       -0.16630       -0.08730
| 29> C          3.85700       -0.27780        0.57150
| 30> N          0.26230       -0.02340       -0.16410
| 31> C         -2.29340        0.28700       -1.28310
| 32> C         -3.54470        0.44250       -1.84640
| 33> H         -5.66040        0.42420       -1.50710
| 34> H         -5.44200       -0.10330        0.89190
| 35> H         -3.22970       -0.38090        1.90090
| 36> H         -1.16210       -0.62500        2.77260
| 37> H          1.91090        0.35700       -2.11140
| 38> H          4.20260        0.51600       -3.11820
| 39> H          6.00300       -0.30580        0.44110
| 40> H          3.81790       -0.50630        1.62610
| 41> H         -1.40130        0.39350       -1.88020
| 42> H         -3.63550        0.67350       -2.89770
| 43> *
| 44> 
| 45> 
| 46> $new_job
| 47> ! wb97x-d3 aug-cc-PVTZ RIJCOSX SP
| 48> %maxcore 4000
| 49> %basis
| 50>  AuxJ "aug-cc-PVTZ/JK"
| 51>  AuxC "aug-cc-PVTZ/C"
| 52>  newGTO H "cc-PVTZ" end
| 53>  newAuxJGTO H "cc-PVTZ/JK" end
| 54>  newAuxCGTO H "cc-PVTZ/C" end
| 55> end
| 56> %cpcm
| 57>  SMD true
| 58>  SMDsolvent "ethanol"
| 59> end
| 60> %pal nprocs 4 end
| 61> %tddft
| 62>  nroots 10
| 63>  maxdim 7
| 64> end
| 65> * xyzfile 0 1
| 66> 
| 67>                          ****END OF INPUT****
================================================================================


                 $$$$$$$$$$$$$$$$$$$$$$$$$$$$$$$$$$$$$$$$$$$$$$ 
                 $ THERE ARE  2 JOBS TO BE PROCESSED THIS RUN $
                 $$$$$$$$$$$$$$$$$$$$$$$$$$$$$$$$$$$$$$$$$$$$$$ 




                 $$$$$$$$$$$$$$$$  JOB NUMBER  1 $$$$$$$$$$$$$$


                       *****************************
                       * Geometry Optimization Run *
                       *****************************

Geometry optimization settings:
Update method            Update   .... BFGS
Choice of coordinates    CoordSys .... Z-matrix Internals
Initial Hessian          InHess   .... Almoef's Model

Convergence Tolerances:
Energy Change            TolE     ....  5.0000e-06 Eh
Max. Gradient            TolMAXG  ....  3.0000e-04 Eh/bohr
RMS Gradient             TolRMSG  ....  1.0000e-04 Eh/bohr
Max. Displacement        TolMAXD  ....  4.0000e-03 bohr
RMS Displacement         TolRMSD  ....  2.0000e-03 bohr
Strict Convergence                ....  False
------------------------------------------------------------------------------
                        ORCA OPTIMIZATION COORDINATE SETUP
------------------------------------------------------------------------------

The optimization will be done in new redundant internal coordinates
Making redundant internal coordinates   ...  (new redundants) done
Evaluating the initial hessian          ...  (Almloef) done
Evaluating the coordinates              ...  done
Calculating the B-matrix                .... done
Calculating the G-matrix                .... done
Diagonalizing the G-matrix              .... done
Small eigenvalue found = 4.208e-03
Small eigenvalue found = 2.491e-02
Small eigenvalue found = 2.852e-02
The first mode is                       ....   63
The number of degrees of freedom        ....   75

    -----------------------------------------------------------------
                    Redundant Internal Coordinates


    -----------------------------------------------------------------
         Definition                    Initial Value    Approx d2E/dq
    -----------------------------------------------------------------
      1. B(C   1,C   0)                  1.3854         0.635458   
      2. B(C   2,C   1)                  1.3817         0.644068   
      3. B(C   3,C   2)                  1.3942         0.615287   
      4. B(C   4,C   3)                  1.4581         0.486559   
      5. B(C   5,C   4)                  1.3736         0.663593   
      6. B(S   6,C   5)                  1.7096         0.520658   
      7. B(C   7,S   6)                  1.7648         0.425163   
      8. B(C   8,C   7)                  1.4448         0.510851   
      9. B(C   9,C   8)                  1.3971         0.608605   
     10. B(C  10,C   9)                  1.3833         0.640256   
     11. B(N  11,C  10)                  1.3230         0.715650   
     12. B(C  12,N  11)                  1.3222         0.717759   
     13. B(C  13,C  12)                  1.3840         0.638774   
     14. B(C  13,C   8)                  1.3951         0.613147   
     15. B(N  14,C   4)                  1.3569         0.631854   
     16. B(N  14,C   7)                  1.2860         0.819884   
     17. B(C  15,C   3)                  1.3949         0.613659   
     18. B(C  16,C  15)                  1.3810         0.645732   
     19. B(C  16,C   0)                  1.3853         0.635679   
     20. B(H  17,C   0)                  1.0799         0.373695   
     21. B(H  18,C   1)                  1.0803         0.373136   
     22. B(H  19,C   2)                  1.0793         0.374506   
     23. B(H  20,C   5)                  1.0706         0.386771   
     24. B(H  21,C   9)                  1.0775         0.377072   
     25. B(H  22,C  10)                  1.0821         0.370654   
     26. B(H  23,C  12)                  1.0821         0.370652   
     27. B(H  24,C  13)                  1.0798         0.373878   
     28. B(H  25,C  15)                  1.0788         0.375287   
     29. B(H  26,C  16)                  1.0802         0.373297   
     30. A(C   1,C   0,C  16)          119.7074         0.437962   
     31. A(C  16,C   0,H  17)          120.2297         0.356640   
     32. A(C   1,C   0,H  17)          120.0629         0.356619   
     33. A(C   0,C   1,C   2)          120.3618         0.438999   
     34. A(C   0,C   1,H  18)          119.9672         0.356529   
     35. A(C   2,C   1,H  18)          119.6710         0.357345   
     36. A(C   3,C   2,H  19)          120.2252         0.354803   
     37. A(C   1,C   2,H  19)          119.4594         0.357567   
     38. A(C   1,C   2,C   3)          120.3154         0.436453   
     39. A(C   4,C   3,C  15)          119.1224         0.414888   
     40. A(C   2,C   3,C   4)          121.9573         0.415083   
     41. A(C   2,C   3,C  15)          118.9202         0.432670   
     42. A(C   5,C   4,N  14)          113.5274         0.438023   
     43. A(C   3,C   4,C   5)          126.8870         0.420709   
     44. A(C   3,C   4,N  14)          119.5856         0.414351   
     45. A(C   4,C   5,S   6)          111.4301         0.449481   
     46. A(S   6,C   5,H  20)          119.4975         0.364917   
     47. A(C   4,C   5,H  20)          129.0724         0.361368   
     48. A(C   5,S   6,C   7)           88.1945         0.437809   
     49. A(S   6,C   7,C   8)          121.7196         0.413528   
     50. A(C   8,C   7,N  14)          124.8704         0.437938   
     51. A(S   6,C   7,N  14)          113.4100         0.447234   
     52. A(C   9,C   8,C  13)          117.9747         0.431757   
     53. A(C   7,C   8,C  13)          121.9243         0.418439   
     54. A(C   7,C   8,C   9)          120.1009         0.417885   
     55. A(C   8,C   9,C  10)          118.3614         0.435130   
     56. A(C  10,C   9,H  21)          121.8587         0.357622   
     57. A(C   8,C   9,H  21)          119.7799         0.354557   
     58. A(C   9,C  10,N  11)          123.6265         0.445104   
     59. A(N  11,C  10,H  22)          115.4529         0.361150   
     60. A(C   9,C  10,H  22)          120.9206         0.356580   
     61. A(C  10,N  11,C  12)          118.0135         0.451427   
     62. A(N  11,C  12,C  13)          123.5592         0.445154   
     63. A(C  13,C  12,H  23)          120.8660         0.356439   
     64. A(N  11,C  12,H  23)          115.5749         0.361331   
     65. A(C   8,C  13,C  12)          118.4647         0.435531   
     66. A(C  12,C  13,H  24)          120.9092         0.356965   
     67. A(C   8,C  13,H  24)          120.6261         0.354493   
     68. A(C   4,N  14,C   7)          113.4379         0.452125   
     69. A(C   3,C  15,C  16)          120.5067         0.436447   
     70. A(C  16,C  15,H  25)          120.8242         0.357851   
     71. A(C   3,C  15,H  25)          118.6691         0.354769   
     72. A(C   0,C  16,C  15)          120.1884         0.439231   
     73. A(C  15,C  16,H  26)          119.8157         0.357528   
     74. A(C   0,C  16,H  26)          119.9958         0.356576   
     75. D(C   2,C   1,C   0,H  17)    179.9970         0.028029   
     76. D(H  18,C   1,C   0,C  16)    179.9958         0.028029   
     77. D(H  18,C   1,C   0,H  17)      0.0059         0.028029   
     78. D(C   2,C   1,C   0,C  16)     -0.0131         0.028029   
     79. D(H  19,C   2,C   1,C   0)    179.9996         0.028846   
     80. D(C   3,C   2,C   1,H  18)   -179.9969         0.028846   
     81. D(H  19,C   2,C   1,H  18)     -0.0092         0.028846   
     82. D(C   3,C   2,C   1,C   0)      0.0120         0.028846   
     83. D(C  15,C   3,C   2,H  19)   -179.9986         0.026173   
     84. D(C  15,C   3,C   2,C   1)     -0.0110         0.026173   
     85. D(C   4,C   3,C   2,C   1)    179.9952         0.026173   
     86. D(C   4,C   3,C   2,H  19)      0.0076         0.026173   
     87. D(N  14,C   4,C   3,C   2)    179.9991         0.016119   
     88. D(C   5,C   4,C   3,C   2)     -0.0006         0.016119   
     89. D(C   5,C   4,C   3,C  15)   -179.9944         0.016119   
     90. D(N  14,C   4,C   3,C  15)      0.0053         0.016119   
     91. D(H  20,C   5,C   4,N  14)   -179.9935         0.030752   
     92. D(H  20,C   5,C   4,C   3)      0.0063         0.030752   
     93. D(S   6,C   5,C   4,N  14)     -0.0062         0.030752   
     94. D(S   6,C   5,C   4,C   3)    179.9935         0.030752   
     95. D(C   7,S   6,C   5,H  20)    179.9981         0.005534   
     96. D(C   7,S   6,C   5,C   4)      0.0095         0.005534   
     97. D(N  14,C   7,S   6,C   5)     -0.0115         0.004140   
     98. D(C   8,C   7,S   6,C   5)    179.9995         0.004140   
     99. D(C  13,C   8,C   7,N  14)   -179.9942         0.017786   
    100. D(C  13,C   8,C   7,S   6)     -0.0065         0.017786   
    101. D(C   9,C   8,C   7,N  14)      0.0029         0.017786   
    102. D(C   9,C   8,C   7,S   6)    179.9906         0.017786   
    103. D(H  21,C   9,C   8,C   7)     -0.0000         0.025575   
    104. D(C  10,C   9,C   8,C  13)     -0.0060         0.025575   
    105. D(C  10,C   9,C   8,C   7)    179.9968         0.025575   
    106. D(H  21,C   9,C   8,C  13)    179.9972         0.025575   
    107. D(H  22,C  10,C   9,H  21)      0.0006         0.028483   
    108. D(H  22,C  10,C   9,C   8)   -179.9961         0.028483   
    109. D(N  11,C  10,C   9,H  21)   -179.9991         0.028483   
    110. D(N  11,C  10,C   9,C   8)      0.0042         0.028483   
    111. D(C  12,N  11,C  10,H  22)   -179.9982         0.038520   
    112. D(C  12,N  11,C  10,C   9)      0.0015         0.038520   
    113. D(H  23,C  12,N  11,C  10)    179.9987         0.038770   
    114. D(C  13,C  12,N  11,C  10)     -0.0053         0.038770   
    115. D(H  24,C  13,C  12,H  23)     -0.0045         0.028342   
    116. D(C   8,C  13,C  12,H  23)    179.9990         0.028342   
    117. D(C   8,C  13,C  12,N  11)      0.0032         0.028342   
    118. D(H  24,C  13,C   8,C   9)   -179.9939         0.025980   
    119. D(H  24,C  13,C   8,C   7)      0.0033         0.025980   
    120. D(H  24,C  13,C  12,N  11)    179.9997         0.028342   
    121. D(C  12,C  13,C   8,C   9)      0.0026         0.025980   
    122. D(C  12,C  13,C   8,C   7)    179.9998         0.025980   
    123. D(C   4,N  14,C   7,C   8)    179.9988         0.052117   
    124. D(C   4,N  14,C   7,S   6)      0.0103         0.052117   
    125. D(C   7,N  14,C   4,C   5)     -0.0027         0.029374   
    126. D(C   7,N  14,C   4,C   3)    179.9975         0.029374   
    127. D(H  25,C  15,C   3,C   4)     -0.0060         0.026026   
    128. D(H  25,C  15,C   3,C   2)   -179.9999         0.026026   
    129. D(C  16,C  15,C   3,C   4)   -179.9946         0.026026   
    130. D(C  16,C  15,C   3,C   2)      0.0115         0.026026   
    131. D(C   0,C  16,C  15,H  25)    179.9988         0.029006   
    132. D(C   0,C  16,C  15,C   3)     -0.0128         0.029006   
    133. D(H  26,C  16,C   0,H  17)     -0.0097         0.028050   
    134. D(H  26,C  16,C   0,C   1)   -179.9995         0.028050   
    135. D(C  15,C  16,C   0,H  17)   -179.9966         0.028050   
    136. D(H  26,C  16,C  15,C   3)   -179.9998         0.029006   
    137. D(C  15,C  16,C   0,C   1)      0.0135         0.028050   
    138. D(H  26,C  16,C  15,H  25)      0.0118         0.029006   
    -----------------------------------------------------------------

Number of atoms                         .... 27
Number of degrees of freedom            .... 138

         *************************************************************
         *                GEOMETRY OPTIMIZATION CYCLE   1            *
         *************************************************************
---------------------------------
CARTESIAN COORDINATES (ANGSTROEM)
---------------------------------
  C     -4.681600    0.302800   -1.067300
  C     -4.558200    0.006500    0.280400
  C     -3.308900   -0.150200    0.849500
  C     -2.159400   -0.011400    0.072900
  C     -0.823800   -0.169000    0.636200
  C     -0.508400   -0.461100    1.940800
  S      1.183400   -0.555200    2.168400
  C      1.378400   -0.187000    0.453500
  C      2.683400   -0.088100   -0.158600
  C      2.798500    0.205000   -1.519800
  C      4.065400    0.291200   -2.068600
  N      5.177900    0.111200   -1.375500
  C      5.069000   -0.166300   -0.087300
  C      3.857000   -0.277800    0.571500
  N      0.262300   -0.023400   -0.164100
  C     -2.293400    0.287000   -1.283100
  C     -3.544700    0.442500   -1.846400
  H     -5.660400    0.424200   -1.507100
  H     -5.442000   -0.103300    0.891900
  H     -3.229700   -0.380900    1.900900
  H     -1.162100   -0.625000    2.772600
  H      1.910900    0.357000   -2.111400
  H      4.202600    0.516000   -3.118200
  H      6.003000   -0.305800    0.441100
  H      3.817900   -0.506300    1.626100
  H     -1.401300    0.393500   -1.880200
  H     -3.635500    0.673500   -2.897700

----------------------------
CARTESIAN COORDINATES (A.U.)
----------------------------
  NO LB      ZA    FRAG     MASS         X           Y           Z
   0 C     6.0000    0    12.011   -8.846942    0.572209   -2.016905
   1 C     6.0000    0    12.011   -8.613750    0.012283    0.529879
   2 C     6.0000    0    12.011   -6.252915   -0.283837    1.605322
   3 C     6.0000    0    12.011   -4.080675   -0.021543    0.137761
   4 C     6.0000    0    12.011   -1.556756   -0.319364    1.202244
   5 C     6.0000    0    12.011   -0.960737   -0.871353    3.667580
   6 S    16.0000    0    32.060    2.236302   -1.049176    4.097682
   7 C     6.0000    0    12.011    2.604799   -0.353379    0.856991
   8 C     6.0000    0    12.011    5.070891   -0.166485   -0.299711
   9 C     6.0000    0    12.011    5.288399    0.387394   -2.872006
  10 C     6.0000    0    12.011    7.682493    0.550288   -3.909087
  11 N     7.0000    0    14.007    9.784813    0.210138   -2.599318
  12 C     6.0000    0    12.011    9.579022   -0.314261   -0.164973
  13 C     6.0000    0    12.011    7.288674   -0.524966    1.079978
  14 N     7.0000    0    14.007    0.495675   -0.044220   -0.310104
  15 C     6.0000    0    12.011   -4.333898    0.542351   -2.424708
  16 C     6.0000    0    12.011   -6.698512    0.836204   -3.489190
  17 H     1.0000    0     1.008  -10.696606    0.801622   -2.848006
  18 H     1.0000    0     1.008  -10.283890   -0.195209    1.685447
  19 H     1.0000    0     1.008   -6.103248   -0.719797    3.592180
  20 H     1.0000    0     1.008   -2.196051   -1.181079    5.239455
  21 H     1.0000    0     1.008    3.611078    0.674632   -3.989968
  22 H     1.0000    0     1.008    7.941763    0.975099   -5.892544
  23 H     1.0000    0     1.008   11.344026   -0.577878    0.833558
  24 H     1.0000    0     1.008    7.214785   -0.956768    3.072884
  25 H     1.0000    0     1.008   -2.648073    0.743607   -3.553063
  26 H     1.0000    0     1.008   -6.870099    1.272731   -5.475859

--------------------------------
INTERNAL COORDINATES (ANGSTROEM)
--------------------------------
 C      0   0   0     0.000000000000     0.00000000     0.00000000
 C      1   0   0     1.385394001719     0.00000000     0.00000000
 C      2   1   0     1.381730867427   120.36179973     0.00000000
 C      3   2   1     1.394174755904   120.31544401     0.00000000
 C      4   3   2     1.458071332274   121.95731359   179.99518805
 C      5   4   3     1.373601372306   126.88703238     0.00000000
 S      6   5   4     1.709632653525   111.43007385   179.99348189
 C      7   6   5     1.764788443412    88.19454327     0.00000000
 C      8   7   6     1.444808852409   121.71960256   179.99950853
 C      9   8   7     1.397147472531   120.10093506   179.99060322
 C     10   9   8     1.383346482267   118.36140249   179.99676490
 N     11  10   9     1.323043408207   123.62648524     0.00000000
 C     12  11  10     1.322242300034   118.01350855     0.00000000
 C     13  12  11     1.383977488979   123.55916244     0.00000000
 N      8   7   6     1.286030299021   113.41003410     0.00000000
 C      4   3   2     1.394895895757   118.92024181     0.00000000
 C     16   4   3     1.381028178568   120.50666584     0.00000000
 H      1   2   3     1.079912700175   120.06285426   179.99703172
 H      2   1   3     1.080319735078   119.96716722   180.00886002
 H      3   2   1     1.079322514358   119.45936976   179.99962003
 H      6   5   4     1.070550391154   129.07237794     0.00000000
 H     10   9   8     1.077463836980   119.77990277     0.00000000
 H     11  10   9     1.082136331522   120.92058035   180.00387381
 H     13  12  11     1.082138073445   115.57487920   179.99870370
 H     14  13  12     1.079778782900   120.90923904   179.99971271
 H     16   4   3     1.078755333706   118.66913276   180.00007994
 H     17  16   4     1.080202448618   119.81571511   180.00016259

---------------------------
INTERNAL COORDINATES (A.U.)
---------------------------
 C      0   0   0     0.000000000000     0.00000000     0.00000000
 C      1   0   0     2.618015250827     0.00000000     0.00000000
 C      2   1   0     2.611092930222   120.36179973     0.00000000
 C      3   2   1     2.634608471485   120.31544401     0.00000000
 C      4   3   2     2.755355501720   121.95731359   179.99518805
 C      5   4   3     2.595730410836   126.88703238     0.00000000
 S      6   5   4     3.230737504772   111.43007385   179.99348189
 C      7   6   5     3.334966842358    88.19454327     0.00000000
 C      8   7   6     2.730293046918   121.71960256   179.99950853
 C      9   8   7     2.640226091784   120.10093506   179.99060322
 C     10   9   8     2.614145999808   118.36140249   179.99676490
 N     11  10   9     2.500189704801   123.62648524     0.00000000
 C     12  11  10     2.498675829751   118.01350855     0.00000000
 C     13  12  11     2.615338429682   123.55916244     0.00000000
 N      8   7   6     2.430245065075   113.41003410     0.00000000
 C      4   3   2     2.635971228312   118.92024181     0.00000000
 C     16   4   3     2.609765040722   120.50666584     0.00000000
 H      1   2   3     2.040739251875   120.06285426   179.99703172
 H      2   1   3     2.041508436369   119.96716722   180.00886002
 H      3   2   1     2.039623962312   119.45936976   179.99962003
 H      6   5   4     2.023047051843   129.07237794     0.00000000
 H     10   9   8     2.036111571096   119.77990277     0.00000000
 H     11  10   9     2.044941306143   120.92058035   180.00387381
 H     13  12  11     2.044944597901   115.57487920   179.99870370
 H     14  13  12     2.040486184899   120.90923904   179.99971271
 H     16   4   3     2.038552146212   118.66913276   180.00007994
 H     17  16   4     2.041286797079   119.81571511   180.00016259

---------------------
BASIS SET INFORMATION
---------------------
There are 4 groups of distinct atoms

 Group   1 Type C   : 19s6p3d2f contracted to 5s4p3d2f pattern {88111/3111/111/11}
 Group   2 Type S   : 42s17p3d2f contracted to 6s5p3d2f pattern {131313111/77111/111/11}
 Group   3 Type N   : 19s6p3d2f contracted to 5s4p3d2f pattern {88111/3111/111/11}
 Group   4 Type H   : 5s2p1d contracted to 3s2p1d pattern {311/11/1}

Atom   0C    basis set group =>   1
Atom   1C    basis set group =>   1
Atom   2C    basis set group =>   1
Atom   3C    basis set group =>   1
Atom   4C    basis set group =>   1
Atom   5C    basis set group =>   1
Atom   6S    basis set group =>   2
Atom   7C    basis set group =>   1
Atom   8C    basis set group =>   1
Atom   9C    basis set group =>   1
Atom  10C    basis set group =>   1
Atom  11N    basis set group =>   3
Atom  12C    basis set group =>   1
Atom  13C    basis set group =>   1
Atom  14N    basis set group =>   3
Atom  15C    basis set group =>   1
Atom  16C    basis set group =>   1
Atom  17H    basis set group =>   4
Atom  18H    basis set group =>   4
Atom  19H    basis set group =>   4
Atom  20H    basis set group =>   4
Atom  21H    basis set group =>   4
Atom  22H    basis set group =>   4
Atom  23H    basis set group =>   4
Atom  24H    basis set group =>   4
Atom  25H    basis set group =>   4
Atom  26H    basis set group =>   4
---------------------------------
AUXILIARY/J BASIS SET INFORMATION
---------------------------------
There are 4 groups of distinct atoms

 Group   1 Type C   : 10s7p5d2f1g contracted to 10s7p5d2f1g pattern {1111111111/1111111/11111/11/1}
 Group   2 Type S   : 13s11p9d3f1g contracted to 13s11p9d3f1g pattern {1111111111111/11111111111/111111111/111/1}
 Group   3 Type N   : 10s7p5d2f1g contracted to 10s7p5d2f1g pattern {1111111111/1111111/11111/11/1}
 Group   4 Type H   : 4s3p2d1f contracted to 4s3p2d1f pattern {1111/111/11/1}

Atom   0C    basis set group =>   1
Atom   1C    basis set group =>   1
Atom   2C    basis set group =>   1
Atom   3C    basis set group =>   1
Atom   4C    basis set group =>   1
Atom   5C    basis set group =>   1
Atom   6S    basis set group =>   2
Atom   7C    basis set group =>   1
Atom   8C    basis set group =>   1
Atom   9C    basis set group =>   1
Atom  10C    basis set group =>   1
Atom  11N    basis set group =>   3
Atom  12C    basis set group =>   1
Atom  13C    basis set group =>   1
Atom  14N    basis set group =>   3
Atom  15C    basis set group =>   1
Atom  16C    basis set group =>   1
Atom  17H    basis set group =>   4
Atom  18H    basis set group =>   4
Atom  19H    basis set group =>   4
Atom  20H    basis set group =>   4
Atom  21H    basis set group =>   4
Atom  22H    basis set group =>   4
Atom  23H    basis set group =>   4
Atom  24H    basis set group =>   4
Atom  25H    basis set group =>   4
Atom  26H    basis set group =>   4
---------------------------------
AUXILIARY/C BASIS SET INFORMATION
---------------------------------
There are 4 groups of distinct atoms

 Group   1 Type C   : 9s7p6d4f2g contracted to 9s7p6d4f2g pattern {111111111/1111111/111111/1111/11}
 Group   2 Type S   : 11s9p8d6f3g contracted to 11s9p8d6f3g pattern {11111111111/111111111/11111111/111111/111}
 Group   3 Type N   : 9s7p6d4f2g contracted to 9s7p6d4f2g pattern {111111111/1111111/111111/1111/11}
 Group   4 Type H   : 4s3p2d1f contracted to 4s3p2d1f pattern {1111/111/11/1}

Atom   0C    basis set group =>   1
Atom   1C    basis set group =>   1
Atom   2C    basis set group =>   1
Atom   3C    basis set group =>   1
Atom   4C    basis set group =>   1
Atom   5C    basis set group =>   1
Atom   6S    basis set group =>   2
Atom   7C    basis set group =>   1
Atom   8C    basis set group =>   1
Atom   9C    basis set group =>   1
Atom  10C    basis set group =>   1
Atom  11N    basis set group =>   3
Atom  12C    basis set group =>   1
Atom  13C    basis set group =>   1
Atom  14N    basis set group =>   3
Atom  15C    basis set group =>   1
Atom  16C    basis set group =>   1
Atom  17H    basis set group =>   4
Atom  18H    basis set group =>   4
Atom  19H    basis set group =>   4
Atom  20H    basis set group =>   4
Atom  21H    basis set group =>   4
Atom  22H    basis set group =>   4
Atom  23H    basis set group =>   4
Atom  24H    basis set group =>   4
Atom  25H    basis set group =>   4
Atom  26H    basis set group =>   4


           ************************************************************
           *        Program running with 4 parallel MPI-processes     *
           *              working on a common directory               *
           ************************************************************
------------------------------------------------------------------------------
                           ORCA GTO INTEGRAL CALCULATION
                           -- RI-GTO INTEGRALS CHOSEN --
------------------------------------------------------------------------------
------------------------------------------------------------------------------
                   ___                                                        
                  /   \      - P O W E R E D   B Y -                         
                 /     \                                                     
                 |  |  |   _    _      __       _____    __    __             
                 |  |  |  | |  | |    /  \     |  _  \  |  |  /  |          
                  \  \/   | |  | |   /    \    | | | |  |  | /  /          
                 / \  \   | |__| |  /  /\  \   | |_| |  |  |/  /          
                |  |  |   |  __  | /  /__\  \  |    /   |      \           
                |  |  |   | |  | | |   __   |  |    \   |  |\   \          
                \     /   | |  | | |  |  |  |  | |\  \  |  | \   \       
                 \___/    |_|  |_| |__|  |__|  |_| \__\ |__|  \__/        
                                                                              
                      - O R C A' S   B I G   F R I E N D -                    
                                      &                                       
                       - I N T E G R A L  F E E D E R -                       
                                                                              
 v1 FN, 2020, v2 2021                                                         
------------------------------------------------------------------------------


Reading SHARK input file wb97x-d3-train-18.SHARKINP.tmp ... ok
----------------------
SHARK INTEGRAL PACKAGE
----------------------

Number of atoms                             ...     27
Number of basis functions                   ...   1047
Number of shells                            ...    411
Maximum angular momentum                    ...      3
Integral batch strategy                     ... SHARK/LIBINT Hybrid
RI-J (if used) integral strategy            ... SPLIT-RIJ (Revised 2003 algorithm where possible)
Printlevel                                  ...      1
Contraction scheme used                     ... PARTIAL GENERAL contraction
Coulomb Range Separation                    ... NOT USED
Exchange Range Separation                   ... Long Range
   Mu parameter                             ...  0.250000
   Scaling (regular/separated)              ...  0.195728  0.804272
Finite Nucleus Model                        ... NOT USED
Auxiliary Coulomb fitting basis             ... AVAILABLE
   # of basis functions in Aux-J            ...   1685
   # of shells in Aux-J                     ...    537
   Maximum angular momentum in Aux-J        ...      4
Auxiliary J/K fitting basis                 ... NOT available
Auxiliary Correlation fitting basis         ... AVAILABLE
   # of basis functions in Aux-C            ...   2143
   # of shells in Aux-C                     ...    585
   Maximum angular momentum in Aux-C        ...      4
Auxiliary 'external' fitting basis          ... NOT available
Integral threshold                          ...     2.500000e-11
Primitive cut-off                           ...     2.500000e-12
Primitive pair pre-selection threshold      ...     2.500000e-12

Calculating pre-screening integrals         ... done (  0.3 sec) Dimension = 411
Calculating pre-screening integrals (ORCA)  ... done (  0.6 sec) Dimension = 300
Organizing shell pair data                  ... done (  2.0 sec)
Shell pair information
Total number of shell pairs                 ...     84666
Shell pairs after pre-screening             ...     55752
Total number of primitive shell pairs       ...    107494
Primitive shell pairs kept                  ...     64721
          la=0 lb=0:  12544 shell pairs
          la=1 lb=0:  14355 shell pairs
          la=1 lb=1:   3580 shell pairs
          la=2 lb=0:   9299 shell pairs
          la=2 lb=1:   4585 shell pairs
          la=2 lb=2:   1520 shell pairs
          la=3 lb=0:   5135 shell pairs
          la=3 lb=1:   2565 shell pairs
          la=3 lb=2:   1684 shell pairs
          la=3 lb=3:    485 shell pairs

Calculating one electron integrals          ... done (  0.2 sec)
Calculating RI/J V-Matrix + Cholesky decomp.... done (  0.4 sec)
Calculating RI/C V-Matrix + Cholesky decomp.... done (  0.9 sec)
Calculating Nuclear repulsion               ... done (  0.0 sec) ENN=   1151.906837398700 Eh

SHARK setup successfully completed in   9.1 seconds

Maximum memory used throughout the entire GTOINT-calculation: 91.4 MB


           ************************************************************
           *        Program running with 4 parallel MPI-processes     *
           *              working on a common directory               *
           ************************************************************
-------------------------------------------------------------------------------
                                 ORCA SCF
-------------------------------------------------------------------------------

------------
SCF SETTINGS
------------
Hamiltonian:
 Density Functional     Method          .... DFT(GTOs)
 Exchange Functional    Exchange        .... WB97X-D3
 Correlation Functional Correlation     .... WB97X-D3
 Gradients option       PostSCFGGA      .... off
 Hybrid DFT is turned on
   Fraction HF Exchange ScalHFX         ....  0.195728
   Scaling of DF-GGA-X  ScalDFX         ....  0.000000
   Scaling of DF-GGA-C  ScalDFC         ....  1.000000
   Scaling of DF-LDA-C  ScalLDAC        ....  1.000000
   Perturbative correction              ....  0.000000
   Density functional embedding theory  .... OFF
 Long-range corrected/Screened/Range-Separated Hybrid DFT is turned on
   Amount of maximum screened exact exchange              ....  0.804272
   Range separation parameter mu (erf(mu*r12)/r12)        ....  0.250000
 RI-approximation to the Coulomb term is turned on
   Number of AuxJ basis functions       .... 1685
   RIJ-COSX (HFX calculated with COS-X)).... on


General Settings:
 Integral files         IntName         .... wb97x-d3-train-18
 Hartree-Fock type      HFTyp           .... RHF
 Total Charge           Charge          ....    0
 Multiplicity           Mult            ....    1
 Number of Electrons    NEL             ....  124
 Basis Dimension        Dim             ....  926
 Nuclear Repulsion      ENuc            ....   1151.9068373987 Eh

Convergence Acceleration:
 DIIS                   CNVDIIS         .... on
   Start iteration      DIISMaxIt       ....    12
   Startup error        DIISStart       ....  0.200000
   # of expansion vecs  DIISMaxEq       ....     5
   Bias factor          DIISBfac        ....   1.050
   Max. coefficient     DIISMaxC        ....  10.000
 Trust-Rad. Augm. Hess. CNVTRAH         .... auto
   Auto Start mean grad. ratio tolernc. ....  1.125000
   Auto Start start iteration           ....    20
   Auto Start num. interpolation iter.  ....    10
   Max. Number of Micro iterations      ....    16
   Max. Number of Macro iterations      .... Maxiter - #DIIS iter
   Number of Davidson start vectors     ....     2
   Converg. threshold I  (grad. norm)   ....   1.000e-05
   Converg. threshold II (energy diff.) ....   1.000e-08
   Grad. Scal. Fac. for Micro threshold ....   0.100
   Minimum threshold for Micro iter.    ....   0.010
   NR start threshold (gradient norm)   ....   0.001
   Initial trust radius                 ....   0.400
   Minimum AH scaling param. (alpha)    ....   1.000
   Maximum AH scaling param. (alpha)    .... 1000.000
   Orbital update algorithm             .... Taylor
   White noise on init. David. guess    .... on
   Maximum white noise                  ....   0.010
   Quad. conv. algorithm                .... NR
 SOSCF                  CNVSOSCF        .... on
   Start iteration      SOSCFMaxIt      ....   150
   Startup grad/error   SOSCFStart      ....  0.003300
 Level Shifting         CNVShift        .... on
   Level shift para.    LevelShift      ....    0.2500
   Turn off err/grad.   ShiftErr        ....    0.0010
 Zerner damping         CNVZerner       .... off
 Static damping         CNVDamp         .... on
   Fraction old density DampFac         ....    0.7000
   Max. Damping (<1)    DampMax         ....    0.9800
   Min. Damping (>=0)   DampMin         ....    0.0000
   Turn off err/grad.   DampErr         ....    0.1000
 Fernandez-Rico         CNVRico         .... off

SCF Procedure:
 Maximum # iterations   MaxIter         ....   125
 SCF integral mode      SCFMode         .... Direct
   Integral package                     .... SHARK and LIBINT hybrid scheme
 Reset frequency        DirectResetFreq ....    20
 Integral Threshold     Thresh          ....  2.500e-11 Eh
 Primitive CutOff       TCut            ....  2.500e-12 Eh

Convergence Tolerance:
 Convergence Check Mode ConvCheckMode   .... Total+1el-Energy
 Convergence forced     ConvForced      .... 0
 Energy Change          TolE            ....  1.000e-08 Eh
 1-El. energy change                    ....  1.000e-05 Eh
 Orbital Gradient       TolG            ....  1.000e-05
 Orbital Rotation angle TolX            ....  1.000e-05
 DIIS Error             TolErr          ....  5.000e-07


Diagonalization of the overlap matrix:
Smallest eigenvalue                        ... 9.352e-07
Time for diagonalization                   ...    0.260 sec
Threshold for overlap eigenvalues          ... 1.000e-08
Number of eigenvalues below threshold      ... 0
Time for construction of square roots      ...    0.202 sec
Total time needed                          ...    0.468 sec

Time for model grid setup =    1.344 sec

------------------------------
INITIAL GUESS: MODEL POTENTIAL
------------------------------
Loading Hartree-Fock densities                     ... done
Calculating cut-offs                               ... done
Initializing the effective Hamiltonian             ... done
Setting up the integral package (SHARK)            ... done
Starting the Coulomb interaction                   ... done (   2.6 sec)
Reading the grid                                   ... done
Mapping shells                                     ... done
Starting the XC term evaluation                    ... done (   1.8 sec)
  promolecular density results
     # of electrons  =    123.993612902
     EX              =   -112.600003577
     EC              =     -4.252583548
     EX+EC           =   -116.852587125
Transforming the Hamiltonian                       ... done (   0.2 sec)
Diagonalizing the Hamiltonian                      ... done (   0.3 sec)
Back transforming the eigenvectors                 ... done (   0.1 sec)
Now organizing SCF variables                       ... done
                      ------------------
                      INITIAL GUESS DONE (   6.4 sec)
                      ------------------
-------------------
DFT GRID GENERATION
-------------------

General Integration Accuracy     IntAcc      ... 4.388
Radial Grid Type                 RadialGrid  ... OptM3 with GC (2021)
Angular Grid (max. ang.)         AngularGrid ... 4 (Lebedev-302)
Angular grid pruning method      GridPruning ... 4 (adaptive)
Weight generation scheme         WeightScheme... Becke
Basis function cutoff            BFCut       ... 1.0000e-11
Integration weight cutoff        WCut        ... 1.0000e-14
Angular grids for H and He will be reduced by one unit
Partially contracted basis set               ... off
Rotationally invariant grid construction     ... off

Total number of grid points                  ...   139398
Total number of batches                      ...     2191
Average number of points per batch           ...       63
Average number of grid points per atom       ...     5163
Time for grid setup =    2.873 sec

--------------------
COSX GRID GENERATION
--------------------

GRIDX 1
-------
General Integration Accuracy     IntAcc      ... 3.816
Radial Grid Type                 RadialGrid  ... OptM3 with GC (2021)
Angular Grid (max. ang.)         AngularGrid ... 1 (Lebedev-50)
Angular grid pruning method      GridPruning ... 4 (adaptive)
Weight generation scheme         WeightScheme... Becke
Basis function cutoff            BFCut       ... 1.0000e-11
Integration weight cutoff        WCut        ... 1.0000e-14
Angular grids for H and He will be reduced by one unit
Partially contracted basis set               ... on
Rotationally invariant grid construction     ... off

Total number of grid points                  ...    17701
Total number of batches                      ...      294
Average number of points per batch           ...       60
Average number of grid points per atom       ...      656
UseSFitting                                  ... on

GRIDX 2
-------
General Integration Accuracy     IntAcc      ... 4.020
Radial Grid Type                 RadialGrid  ... OptM3 with GC (2021)
Angular Grid (max. ang.)         AngularGrid ... 2 (Lebedev-110)
Angular grid pruning method      GridPruning ... 4 (adaptive)
Weight generation scheme         WeightScheme... Becke
Basis function cutoff            BFCut       ... 1.0000e-11
Integration weight cutoff        WCut        ... 1.0000e-14
Angular grids for H and He will be reduced by one unit
Partially contracted basis set               ... on
Rotationally invariant grid construction     ... off

Total number of grid points                  ...    42522
Total number of batches                      ...      676
Average number of points per batch           ...       62
Average number of grid points per atom       ...     1575
UseSFitting                                  ... on

GRIDX 3
-------
General Integration Accuracy     IntAcc      ... 4.338
Radial Grid Type                 RadialGrid  ... OptM3 with GC (2021)
Angular Grid (max. ang.)         AngularGrid ... 3 (Lebedev-194)
Angular grid pruning method      GridPruning ... 4 (adaptive)
Weight generation scheme         WeightScheme... Becke
Basis function cutoff            BFCut       ... 1.0000e-11
Integration weight cutoff        WCut        ... 1.0000e-14
Angular grids for H and He will be reduced by one unit
Partially contracted basis set               ... on
Rotationally invariant grid construction     ... off

Total number of grid points                  ...    92404
Total number of batches                      ...     1459
Average number of points per batch           ...       63
Average number of grid points per atom       ...     3422
UseSFitting                                  ... on

Time for X-Grid setup             =    5.373 sec


--------------------
CPCM SOLVATION MODEL
--------------------
CPCM parameters:
  Epsilon                                         ...      24.8520
  Refrac                                          ...       1.3611
  Rsolv                                           ...       1.3000
  Surface type                                    ... GAUSSIAN VDW
  Epsilon function type                           ...         CPCM
Solvent:                                     ... ETHANOL
SMD-CDS solvent descriptors:
  Soln                                       ...    1.3611
  Soln25                                     ...    1.3593
  Sola                                       ...    0.3700
  Solb                                       ...    0.4800
  Solg                                       ...   31.6200
  Solc                                       ...    0.0000
  Solh                                       ...    0.0000
Radii:
 Radius for C  used is    3.4960 Bohr (=   1.8500 Ang.)
 Radius for S  used is    4.7054 Bohr (=   2.4900 Ang.)
 Radius for N  used is    3.5716 Bohr (=   1.8900 Ang.)
 Radius for H  used is    2.2677 Bohr (=   1.2000 Ang.)
Calculating surface                               ...        done! (  0.0s)
GEPOL surface points                              ...         1544
GEPOL Volume                                      ...    1722.1956
GEPOL Surface-area                                ...     932.7786
Calculating surface distance matrix               ...        done! (  0.0s)
Performing Cholesky decomposition & store         ...        done! (  0.2s)
Overall time for CPCM initialization              ...                 0.2s
 re-compute Schwartz prescreening matrix in partically contracted basis (1) ...done (   0.216 sec)
--------------
SCF ITERATIONS
--------------
ITER       Energy         Delta-E        Max-DP      RMS-DP      [F,P]     Damp
               ***  Starting incremental Fock matrix formation  ***
  0  -1046.8701443609   0.000000000000 0.23516677  0.00120032  0.2144839 0.7000
  1  -1047.0215230254  -0.151378664499 0.17151239  0.00090503  0.1119739 0.7000
                               ***Turning on DIIS***
  2  -1047.1005386105  -0.079015585162 0.35710880  0.00211273  0.0530898 0.0000
  3  -1047.2307783654  -0.130239754893 0.11502187  0.00082710  0.0488530 0.0000
  4  -1047.2506636701  -0.019885304621 0.03553003  0.00030659  0.0078776 0.0000
  5  -1047.2514987130  -0.000835042905 0.02380949  0.00013171  0.0055615 0.0000
                      *** Initiating the SOSCF procedure ***
                           *** Shutting down DIIS ***
                      *** Re-Reading the Fockian *** 
                      *** Removing any level shift *** 
ITER      Energy       Delta-E        Grad      Rot      Max-DP    RMS-DP
  6  -1047.25177370  -0.0002749903  0.002753  0.002753  0.019188  0.000070
               *** Restarting incremental Fock matrix formation ***
  7  -1047.25186328  -0.0000895749  0.001544  0.005280  0.089290  0.001382
  8  -1047.25191696  -0.0000536799  0.000695  0.005282  0.027715  0.000397
  9  -1047.25193376  -0.0000167977  0.000145  0.000571  0.023239  0.000316
 10  -1047.25193545  -0.0000016902  0.000113  0.000362  0.003422  0.000037
 11  -1047.25193590  -0.0000004517  0.000032  0.000083  0.007140  0.000030
 12  -1047.25193595  -0.0000000551  0.000016  0.000069  0.003396  0.000018
 13  -1047.25193597  -0.0000000210  0.000004  0.000024  0.005535  0.000025
                  ***Gradient check signals convergence***
              ***Rediagonalizing the Fockian in SOSCF/NRSCF***

               *****************************************************
               *                     SUCCESS                       *
               *           SCF CONVERGED AFTER  14 CYCLES          *
               *****************************************************

Old exchange energy                            =    -35.695384625 Eh
New exchange energy                            =    -35.695368374 Eh
Exchange energy change after final integration =      0.000016251 Eh
Total energy after final integration           =  -1047.251919717 Eh
Final COS-X integration done in                =   188.750 sec

SMD CDS free energy correction energy :                -1.63987     Kcal/mol
Total Energy after SMD CDS correction =             -1047.254533014 Eh

----------------
TOTAL SCF ENERGY
----------------

Total Energy       :        -1047.25453301 Eh          -28497.24462 eV

Components:
Nuclear Repulsion  :         1151.90683740 Eh           31344.97859 eV
Electronic Energy  :        -2199.16137041 Eh          -59842.22321 eV
One Electron Energy:        -3714.43686664 Eh         -101074.96569 eV
Two Electron Energy:         1515.27549623 Eh           41232.74248 eV
Max COSX asymmetry :            0.00002588 Eh               0.00070 eV
CPCM Dielectric    :           -0.01879888 Eh              -0.51154 eV
SMD CDS (Gcds)     :           -0.00261330 Eh              -0.07111 eV

Virial components:
Potential Energy   :        -2089.99142654 Eh          -56871.55801 eV
Kinetic Energy     :         1042.73689353 Eh           28374.31340 eV
Virial Ratio       :            2.00433248


DFT components:
N(Alpha)           :       62.000077288795 electrons
N(Beta)            :       62.000077288795 electrons
N(Total)           :      124.000154577590 electrons
E(XC)              :      -83.511863970251 Eh       
DFET-embed. en.    :        0.000000000000 Eh       
CPCM Solvation Model Properties:
Surface-charge          :           -0.04908101
Charge-correction       :            0.00016072 Eh               0.00437 eV
Free-energy (cav+disp)  :           -0.00261330 Eh              -0.07111 eV

---------------
SCF CONVERGENCE
---------------

  Last Energy change         ...    5.8617e-09  Tolerance :   1.0000e-08
  Last MAX-Density change    ...    4.2188e-15  Tolerance :   1.0000e-07
  Last RMS-Density change    ...    1.6282e-17  Tolerance :   5.0000e-09
  Last Orbital Gradient      ...    2.3072e-06  Tolerance :   1.0000e-05
  Last Orbital Rotation      ...    6.0777e-06  Tolerance :   1.0000e-05

             **** THE GBW FILE WAS UPDATED (wb97x-d3-train-18.gbw) ****
             **** DENSITY wb97x-d3-train-18.scfp WAS UPDATED ****
             **** ENERGY FILE WAS UPDATED (wb97x-d3-train-18.en.tmp) ****
             **** THE GBW FILE WAS UPDATED (wb97x-d3-train-18.gbw) ****
             **** DENSITY wb97x-d3-train-18.scfp WAS UPDATED ****
----------------
ORBITAL ENERGIES
----------------

  NO   OCC          E(Eh)            E(eV) 
   0   2.0000     -89.025853     -2422.5166 
   1   2.0000     -14.435624      -392.8133 
   2   2.0000     -14.428767      -392.6267 
   3   2.0000     -10.362022      -281.9649 
   4   2.0000     -10.327236      -281.0184 
   5   2.0000     -10.322215      -280.8818 
   6   2.0000     -10.318346      -280.7765 
   7   2.0000     -10.317369      -280.7499 
   8   2.0000     -10.317229      -280.7461 
   9   2.0000     -10.297556      -280.2107 
  10   2.0000     -10.296480      -280.1815 
  11   2.0000     -10.292923      -280.0847 
  12   2.0000     -10.283220      -279.8206 
  13   2.0000     -10.281218      -279.7662 
  14   2.0000     -10.280760      -279.7537 
  15   2.0000     -10.280104      -279.7359 
  16   2.0000     -10.279818      -279.7281 
  17   2.0000      -8.099214      -220.3908 
  18   2.0000      -6.053150      -164.7146 
  19   2.0000      -6.049415      -164.6130 
  20   2.0000      -6.047237      -164.5537 
  21   2.0000      -1.107575       -30.1386 
  22   2.0000      -1.076254       -29.2864 
  23   2.0000      -0.987813       -26.8798 
  24   2.0000      -0.954760       -25.9803 
  25   2.0000      -0.927841       -25.2478 
  26   2.0000      -0.899277       -24.4706 
  27   2.0000      -0.886783       -24.1306 
  28   2.0000      -0.867418       -23.6036 
  29   2.0000      -0.839270       -22.8377 
  30   2.0000      -0.766406       -20.8550 
  31   2.0000      -0.758196       -20.6316 
  32   2.0000      -0.733424       -19.9575 
  33   2.0000      -0.714970       -19.4553 
  34   2.0000      -0.688280       -18.7290 
  35   2.0000      -0.668041       -18.1783 
  36   2.0000      -0.640201       -17.4208 
  37   2.0000      -0.619784       -16.8652 
  38   2.0000      -0.594503       -16.1773 
  39   2.0000      -0.578862       -15.7516 
  40   2.0000      -0.572967       -15.5912 
  41   2.0000      -0.552379       -15.0310 
  42   2.0000      -0.552162       -15.0251 
  43   2.0000      -0.546424       -14.8689 
  44   2.0000      -0.532265       -14.4837 
  45   2.0000      -0.520565       -14.1653 
  46   2.0000      -0.518182       -14.1005 
  47   2.0000      -0.516800       -14.0628 
  48   2.0000      -0.500070       -13.6076 
  49   2.0000      -0.483978       -13.1697 
  50   2.0000      -0.478150       -13.0111 
  51   2.0000      -0.458645       -12.4804 
  52   2.0000      -0.441211       -12.0060 
  53   2.0000      -0.432815       -11.7775 
  54   2.0000      -0.418768       -11.3953 
  55   2.0000      -0.393685       -10.7127 
  56   2.0000      -0.381483       -10.3807 
  57   2.0000      -0.364790        -9.9264 
  58   2.0000      -0.359998        -9.7960 
  59   2.0000      -0.356592        -9.7034 
  60   2.0000      -0.346190        -9.4203 
  61   2.0000      -0.300359        -8.1732 
  62   0.0000      -0.007685        -0.2091 
  63   0.0000       0.027287         0.7425 
  64   0.0000       0.050592         1.3767 
  65   0.0000       0.051114         1.3909 
  66   0.0000       0.052409         1.4261 
  67   0.0000       0.055929         1.5219 
  68   0.0000       0.060645         1.6502 
  69   0.0000       0.062087         1.6895 
  70   0.0000       0.064854         1.7648 
  71   0.0000       0.075810         2.0629 
  72   0.0000       0.076128         2.0716 
  73   0.0000       0.078435         2.1343 
  74   0.0000       0.082208         2.2370 
  75   0.0000       0.085380         2.3233 
  76   0.0000       0.090371         2.4591 
  77   0.0000       0.091847         2.4993 
  78   0.0000       0.096832         2.6349 
  79   0.0000       0.100120         2.7244 
  80   0.0000       0.103216         2.8087 
  81   0.0000       0.105706         2.8764 
  82   0.0000       0.107636         2.9289 
  83   0.0000       0.111787         3.0419 
  84   0.0000       0.115416         3.1406 
  85   0.0000       0.124582         3.3900 
  86   0.0000       0.126465         3.4413 
  87   0.0000       0.128010         3.4833 
  88   0.0000       0.132326         3.6008 
  89   0.0000       0.134455         3.6587 
  90   0.0000       0.138531         3.7696 
  91   0.0000       0.141319         3.8455 
  92   0.0000       0.149624         4.0715 
  93   0.0000       0.150581         4.0975 
  94   0.0000       0.154072         4.1925 
  95   0.0000       0.156520         4.2591 
  96   0.0000       0.164249         4.4694 
  97   0.0000       0.166589         4.5331 
  98   0.0000       0.167038         4.5453 
  99   0.0000       0.170475         4.6389 
 100   0.0000       0.174331         4.7438 
 101   0.0000       0.175635         4.7793 
 102   0.0000       0.177949         4.8422 
 103   0.0000       0.181804         4.9471 
 104   0.0000       0.188574         5.1314 
 105   0.0000       0.188854         5.1390 
 106   0.0000       0.195112         5.3093 
 107   0.0000       0.196893         5.3577 
 108   0.0000       0.197382         5.3710 
 109   0.0000       0.200559         5.4575 
 110   0.0000       0.202110         5.4997 
 111   0.0000       0.202848         5.5198 
 112   0.0000       0.207588         5.6488 
 113   0.0000       0.208086         5.6623 
 114   0.0000       0.213670         5.8143 
 115   0.0000       0.217278         5.9124 
 116   0.0000       0.217859         5.9282 
 117   0.0000       0.220343         5.9958 
 118   0.0000       0.220475         5.9994 
 119   0.0000       0.229357         6.2411 
 120   0.0000       0.231224         6.2919 
 121   0.0000       0.232328         6.3220 
 122   0.0000       0.233999         6.3674 
 123   0.0000       0.234924         6.3926 
 124   0.0000       0.241368         6.5679 
 125   0.0000       0.246764         6.7148 
 126   0.0000       0.247629         6.7383 
 127   0.0000       0.248485         6.7616 
 128   0.0000       0.256855         6.9894 
 129   0.0000       0.263897         7.1810 
 130   0.0000       0.264370         7.1939 
 131   0.0000       0.266922         7.2633 
 132   0.0000       0.268412         7.3039 
 133   0.0000       0.276334         7.5194 
 134   0.0000       0.285113         7.7583 
 135   0.0000       0.286627         7.7995 
 136   0.0000       0.290449         7.9035 
 137   0.0000       0.293247         7.9797 
 138   0.0000       0.294051         8.0015 
 139   0.0000       0.298473         8.1219 
 140   0.0000       0.301935         8.2161 
 141   0.0000       0.311344         8.4721 
 142   0.0000       0.316672         8.6171 
 143   0.0000       0.318822         8.6756 
 144   0.0000       0.321390         8.7455 
 145   0.0000       0.321688         8.7536 
 146   0.0000       0.327763         8.9189 
 147   0.0000       0.330662         8.9978 
 148   0.0000       0.332023         9.0348 
 149   0.0000       0.338693         9.2163 
 150   0.0000       0.344484         9.3739 
 151   0.0000       0.345741         9.4081 
 152   0.0000       0.351440         9.5632 
 153   0.0000       0.354223         9.6389 
 154   0.0000       0.355947         9.6858 
 155   0.0000       0.359137         9.7726 
 156   0.0000       0.361103         9.8261 
 157   0.0000       0.365339         9.9414 
 158   0.0000       0.370662        10.0862 
 159   0.0000       0.372147        10.1266 
 160   0.0000       0.380167        10.3449 
 161   0.0000       0.383615        10.4387 
 162   0.0000       0.387110        10.5338 
 163   0.0000       0.391567        10.6551 
 164   0.0000       0.393255        10.7010 
 165   0.0000       0.395413        10.7597 
 166   0.0000       0.400935        10.9100 
 167   0.0000       0.403071        10.9681 
 168   0.0000       0.403639        10.9836 
 169   0.0000       0.404090        10.9958 
 170   0.0000       0.410909        11.1814 
 171   0.0000       0.422347        11.4926 
 172   0.0000       0.422764        11.5040 
 173   0.0000       0.423608        11.5270 
 174   0.0000       0.424140        11.5414 
 175   0.0000       0.431280        11.7357 
 176   0.0000       0.439507        11.9596 
 177   0.0000       0.440691        11.9918 
 178   0.0000       0.443638        12.0720 
 179   0.0000       0.445143        12.1130 
 180   0.0000       0.445846        12.1321 
 181   0.0000       0.448557        12.2059 
 182   0.0000       0.458636        12.4801 
 183   0.0000       0.460341        12.5265 
 184   0.0000       0.463213        12.6047 
 185   0.0000       0.466107        12.6834 
 186   0.0000       0.468269        12.7422 
 187   0.0000       0.470402        12.8003 
 188   0.0000       0.475020        12.9260 
 189   0.0000       0.479298        13.0423 
 190   0.0000       0.479781        13.0555 
 191   0.0000       0.484563        13.1856 
 192   0.0000       0.484682        13.1889 
 193   0.0000       0.485852        13.2207 
 194   0.0000       0.488713        13.2986 
 195   0.0000       0.491604        13.3772 
 196   0.0000       0.495214        13.4755 
 197   0.0000       0.500928        13.6309 
 198   0.0000       0.502950        13.6860 
 199   0.0000       0.506370        13.7790 
 200   0.0000       0.510497        13.8913 
 201   0.0000       0.514450        13.9989 
 202   0.0000       0.518669        14.1137 
 203   0.0000       0.520953        14.1758 
 204   0.0000       0.525832        14.3086 
 205   0.0000       0.526137        14.3169 
 206   0.0000       0.534851        14.5540 
 207   0.0000       0.535835        14.5808 
 208   0.0000       0.542816        14.7708 
 209   0.0000       0.547777        14.9058 
 210   0.0000       0.547790        14.9061 
 211   0.0000       0.553972        15.0743 
 212   0.0000       0.558240        15.1905 
 213   0.0000       0.563747        15.3403 
 214   0.0000       0.566880        15.4256 
 215   0.0000       0.571082        15.5399 
 216   0.0000       0.571554        15.5528 
 217   0.0000       0.575448        15.6587 
 218   0.0000       0.578138        15.7319 
 219   0.0000       0.578930        15.7535 
 220   0.0000       0.587486        15.9863 
 221   0.0000       0.588373        16.0105 
 222   0.0000       0.595827        16.2133 
 223   0.0000       0.597157        16.2495 
 224   0.0000       0.600546        16.3417 
 225   0.0000       0.611063        16.6279 
 226   0.0000       0.613355        16.6902 
 227   0.0000       0.618415        16.8279 
 228   0.0000       0.625712        17.0265 
 229   0.0000       0.630343        17.1525 
 230   0.0000       0.632240        17.2041 
[...]
   Maximum Energy change  :     0.019901595909 (vector 1)
   Maximum residual norm  :     0.001516644227

                       ****Iteration    2****
   Time for densities:            0.162
   Time for RI-J (Direct):        8.246
   Time for K (COSX):            35.294
   Time for XC-Integration:      11.868
   Time for LR-CPCM terms:        7.397
   Time for Sigma-Completion:     0.120
   Size of expansion space: 50
   Lowest Energy          :     0.166180398192
   Maximum Energy change  :     0.003815110118 (vector 6)
   Maximum residual norm  :     0.000644085908

                       ****Iteration    3****
   Time for densities:            0.173
   Time for RI-J (Direct):        8.215
   Time for K (COSX):            35.570
   Time for XC-Integration:      12.007
   Time for LR-CPCM terms:        7.428
   Time for Sigma-Completion:     0.126
   Size of expansion space: 60
   Lowest Energy          :     0.165964785713
   Maximum Energy change  :     0.002250836205 (vector 7)
   Maximum residual norm  :     0.000460480085

                       ****Iteration    4****
   Time for densities:            0.173
   Time for RI-J (Direct):        8.201
   Time for K (COSX):            34.774
   Time for XC-Integration:      12.514
   Time for LR-CPCM terms:        7.431
   Time for Sigma-Completion:     0.121
   Size of expansion space: 70
   Lowest Energy          :     0.165935929895
   Maximum Energy change  :     0.002186573445 (vector 9)
   Maximum residual norm  :     0.000301594823
   Rebuilding the expansion space

                       ****Iteration    5****
   Time for densities:            0.337
   Time for RI-J (Direct):       10.742
   Time for K (COSX):            60.280
   Time for XC-Integration:      23.434
   Time for LR-CPCM terms:       11.838
   Time for Sigma-Completion:     0.219
   Size of expansion space: 20
   Lowest Energy          :     0.165933240468
   Maximum Energy change  :     0.000775907462 (vector 9)
   Maximum residual norm  :     0.000166985679

                       ****Iteration    6****
   Time for densities:            0.177
   Time for RI-J (Direct):        8.163
   Time for K (COSX):            35.367
   Time for XC-Integration:      12.269
   Time for LR-CPCM terms:        7.408
   Time for Sigma-Completion:     0.115
   Size of expansion space: 30
   Lowest Energy          :     0.165932864087
   Maximum Energy change  :     0.003217165550 (vector 9)
   Maximum residual norm  :     0.009035509516

                       ****Iteration    7****
   Time for densities:            0.169
   Time for RI-J (Direct):        8.202
   Time for K (COSX):            36.976
   Time for XC-Integration:      13.120
   Time for LR-CPCM terms:        7.503
   Time for Sigma-Completion:     0.115
   Size of expansion space: 40
   Lowest Energy          :     0.165932815005
   Maximum Energy change  :     0.010292925806 (vector 8)
   Maximum residual norm  :     0.001589066916

                       ****Iteration    8****
   Time for densities:            0.204
   Time for RI-J (Direct):        8.279
   Time for K (COSX):            37.565
   Time for XC-Integration:      13.453
   Time for LR-CPCM terms:        7.420
   Time for Sigma-Completion:     0.128
   Size of expansion space: 50
   Lowest Energy          :     0.165932808963
   Maximum Energy change  :     0.001983866151 (vector 6)
   Maximum residual norm  :     0.000217203360

                       ****Iteration    9****
   Time for densities:            0.191
   Time for RI-J (Direct):        8.338
   Time for K (COSX):            39.725
   Time for XC-Integration:      13.228
   Time for LR-CPCM terms:        7.491
   Time for Sigma-Completion:     0.121
   Size of expansion space: 60
   Lowest Energy          :     0.165932808391
   Maximum Energy change  :     0.000350806749 (vector 6)
   Maximum residual norm  :     0.000035277703

                       ****Iteration   10****
   Time for densities:            0.225
   Time for RI-J (Direct):        8.530
   Time for K (COSX):            38.792
   Time for XC-Integration:      13.591
   Time for LR-CPCM terms:        7.779
   Time for Sigma-Completion:     0.134
   Size of expansion space: 70
   Lowest Energy          :     0.165932808318
   Maximum Energy change  :     0.000069620313 (vector 6)
   Maximum residual norm  :     0.000007135920
   Rebuilding the expansion space

                       ****Iteration   11****
   Time for densities:            0.459
   Time for RI-J (Direct):       11.021
   Time for K (COSX):            66.838
   Time for XC-Integration:      25.737
   Time for LR-CPCM terms:       12.389
   Time for Sigma-Completion:     0.243
   Size of expansion space: 20
   Lowest Energy          :     0.165932808045
   Maximum Energy change  :     0.000008908782 (vector 6)
   Maximum residual norm  :     0.000001493370

                       ****Iteration   12****
   Time for densities:            0.230
   Time for RI-J (Direct):        8.537
   Time for K (COSX):            38.001
   Time for XC-Integration:      15.375
   Time for LR-CPCM terms:        7.728
   Time for Sigma-Completion:     0.113
   Size of expansion space: 30
   Lowest Energy          :     0.165932808043
   Maximum Energy change  :     0.000003239875 (vector 6)
   Maximum residual norm  :     0.000000465395

      *** CONVERGENCE OF RESIDUAL NORM REACHED ***

Storing the converged CI vectors               ... wb97x-d3-train-18_job2.cis1

                 *** DAVIDSON DONE ***

Total time for solving the CIS problem:  1037.382sec

------------------------------------
TD-DFT/TDA EXCITED STATES (SINGLETS)
------------------------------------

the weight of the individual excitations are printed if larger than 1.0e-02

STATE  1:  E=   0.165933 au      4.515 eV    36418.0 cm**-1 <S**2> =   0.000000
    55a ->  62a  :     0.012622 (c= -0.11234853)
    58a ->  62a  :     0.032320 (c=  0.17977743)
    59a ->  62a  :     0.036010 (c= -0.18976226)
    61a ->  62a  :     0.836781 (c= -0.91475744)

STATE  2:  E=   0.184411 au      5.018 eV    40473.5 cm**-1 <S**2> =   0.000000
    57a ->  62a  :     0.795460 (c= -0.89188542)
    57a ->  63a  :     0.044835 (c= -0.21174196)
    57a ->  74a  :     0.032451 (c=  0.18014127)
    57a ->  78a  :     0.051748 (c= -0.22748204)

STATE  3:  E=   0.190732 au      5.190 eV    41860.8 cm**-1 <S**2> =   0.000000
    54a ->  66a  :     0.038008 (c=  0.19495622)
    56a ->  62a  :     0.036900 (c=  0.19209291)
    58a ->  62a  :     0.350201 (c=  0.59177779)
    58a ->  63a  :     0.023282 (c=  0.15258494)
    58a ->  66a  :     0.016582 (c=  0.12877219)
    59a ->  62a  :     0.280765 (c=  0.52987236)
    59a ->  66a  :     0.045320 (c= -0.21288587)
    61a ->  63a  :     0.094034 (c= -0.30664993)
    61a ->  66a  :     0.038807 (c= -0.19699491)

STATE  4:  E=   0.193249 au      5.259 eV    42413.3 cm**-1 <S**2> =   0.000000
    56a ->  62a  :     0.774006 (c= -0.87977631)
    56a ->  74a  :     0.024263 (c= -0.15576470)
    56a ->  78a  :     0.018013 (c=  0.13421188)
    59a ->  62a  :     0.037941 (c=  0.19478360)
    60a ->  62a  :     0.022927 (c= -0.15141504)
    60a ->  63a  :     0.018621 (c=  0.13645980)

STATE  5:  E=   0.194574 au      5.295 eV    42704.1 cm**-1 <S**2> =   0.000000
    56a ->  62a  :     0.059100 (c=  0.24310549)
    58a ->  68a  :     0.018781 (c= -0.13704537)
    59a ->  62a  :     0.036395 (c=  0.19077527)
    59a ->  68a  :     0.019729 (c=  0.14045849)
    60a ->  63a  :     0.169066 (c=  0.41117577)
    61a ->  63a  :     0.394367 (c=  0.62798658)
    61a ->  66a  :     0.030376 (c= -0.17428786)
    61a ->  67a  :     0.014145 (c=  0.11893308)
    61a ->  68a  :     0.139736 (c= -0.37381231)

STATE  6:  E=   0.195652 au      5.324 eV    42940.6 cm**-1 <S**2> =   0.000000
    58a ->  62a  :     0.021845 (c= -0.14780017)
    58a ->  63a  :     0.010973 (c= -0.10475182)
    58a ->  68a  :     0.017697 (c= -0.13302875)
    59a ->  62a  :     0.010954 (c= -0.10465930)
    59a ->  68a  :     0.025214 (c=  0.15878861)
    60a ->  62a  :     0.014382 (c= -0.11992600)
    60a ->  63a  :     0.198051 (c=  0.44502955)
    60a ->  66a  :     0.017786 (c= -0.13336264)
    61a ->  63a  :     0.375040 (c= -0.61240522)
    61a ->  68a  :     0.182373 (c= -0.42705117)

STATE  7:  E=   0.212701 au      5.788 eV    46682.6 cm**-1 <S**2> =   0.000000
    57a ->  63a  :     0.089024 (c=  0.29836810)
    57a ->  64a  :     0.050612 (c= -0.22497216)
    57a ->  66a  :     0.796178 (c=  0.89228813)
    57a ->  67a  :     0.010012 (c= -0.10006022)
    57a ->  68a  :     0.012686 (c= -0.11263304)

STATE  8:  E=   0.215130 au      5.854 eV    47215.5 cm**-1 <S**2> =   0.000000
    54a ->  63a  :     0.013898 (c=  0.11788901)
    55a ->  62a  :     0.190941 (c=  0.43696751)
    58a ->  62a  :     0.259059 (c=  0.50897857)
    58a ->  63a  :     0.012986 (c= -0.11395720)
    59a ->  62a  :     0.329600 (c= -0.57410786)
    59a ->  63a  :     0.013800 (c=  0.11747176)
    59a ->  66a  :     0.019426 (c= -0.13937683)
    60a ->  62a  :     0.015235 (c=  0.12342944)
    61a ->  62a  :     0.021438 (c=  0.14641734)

STATE  9:  E=   0.222518 au      6.055 eV    48837.0 cm**-1 <S**2> =   0.000000
    55a ->  77a  :     0.013149 (c=  0.11466967)
    55a ->  82a  :     0.010972 (c= -0.10474718)
    61a ->  64a  :     0.278031 (c=  0.52728675)
    61a ->  65a  :     0.030896 (c= -0.17577301)
    61a ->  68a  :     0.016937 (c= -0.13014215)
    61a ->  69a  :     0.059073 (c= -0.24304988)
    61a ->  72a  :     0.031395 (c=  0.17718494)
    61a ->  74a  :     0.011727 (c= -0.10829307)
    61a ->  75a  :     0.033743 (c= -0.18369323)
    61a ->  76a  :     0.051014 (c=  0.22586215)
    61a ->  77a  :     0.098772 (c=  0.31428084)
    61a ->  79a  :     0.026080 (c= -0.16149299)
    61a ->  81a  :     0.033482 (c=  0.18298179)
    61a ->  82a  :     0.116887 (c= -0.34188769)
    61a ->  83a  :     0.014315 (c= -0.11964635)

STATE 10:  E=   0.232753 au      6.334 eV    51083.4 cm**-1 <S**2> =   0.000000
    60a ->  62a  :     0.038877 (c=  0.19717174)
    60a ->  63a  :     0.081886 (c= -0.28615715)
    61a ->  64a  :     0.279097 (c= -0.52829662)
    61a ->  66a  :     0.024661 (c= -0.15703943)
    61a ->  67a  :     0.015294 (c=  0.12366732)
    61a ->  68a  :     0.104687 (c= -0.32355321)
    61a ->  71a  :     0.010729 (c= -0.10358043)
    61a ->  72a  :     0.071048 (c=  0.26654905)
    61a ->  74a  :     0.027248 (c= -0.16506888)
    61a ->  75a  :     0.068632 (c=  0.26197794)
    61a ->  77a  :     0.073946 (c=  0.27193032)
    61a ->  82a  :     0.019568 (c= -0.13988585)
    61a ->  83a  :     0.015857 (c= -0.12592600)


-----------------------------
TD-DFT/TDA-EXCITATION SPECTRA
-----------------------------

Center of mass = (  0.6759, -0.1583,  0.0263)
Calculating the Dipole integrals                  ... done
Transforming integrals                            ... done
Calculating the Linear Momentum integrals         ... done
Transforming integrals                            ... done
Calculating angular momentum integrals            ... done
Transforming integrals                            ... done

-----------------------------------------------------------------------------
         ABSORPTION SPECTRUM VIA TRANSITION ELECTRIC DIPOLE MOMENTS
-----------------------------------------------------------------------------
State   Energy    Wavelength  fosc         T2        TX        TY        TZ  
        (cm-1)      (nm)                 (au**2)    (au)      (au)      (au) 
-----------------------------------------------------------------------------
   1   36418.0    274.6   0.400212248   3.61784   1.57618   0.32173  -1.01489
   2   40473.5    247.1   0.005252120   0.04272   0.02752   0.19067   0.07488
   3   41860.8    238.9   0.156767608   1.23289   0.71299  -0.36976   0.76669
   4   42413.3    235.8   0.017467351   0.13558  -0.34596  -0.04220   0.11879
   5   42704.1    234.2   0.368145651   2.83809  -1.63998   0.09079  -0.37459
   6   42940.6    232.9   0.231859678   1.77760   1.25910  -0.13659   0.41666
   7   46682.6    214.2   0.000076383   0.00054   0.02304   0.00005  -0.00277
   8   47215.5    211.8   0.386027753   2.69159   1.63939  -0.05771   0.02559
   9   48837.0    204.8   0.006004173   0.04047  -0.15033   0.10156  -0.08695
  10   51083.4    195.8   0.066849242   0.43082  -0.06356   0.06892   0.64964

-----------------------------------------------------------------------------
         ABSORPTION SPECTRUM VIA TRANSITION VELOCITY DIPOLE MOMENTS
-----------------------------------------------------------------------------
State   Energy    Wavelength   fosc        P2         PX        PY        PZ  
        (cm-1)      (nm)                 (au**2)     (au)      (au)      (au) 
-----------------------------------------------------------------------------
   1   36418.0    274.6   0.118679300   0.02954  -0.16782  -0.00984   0.03578
   2   40473.5    247.1   0.000132909   0.00004   0.00057   0.00430   0.00424
   3   41860.8    238.9   0.025237887   0.00722  -0.07564   0.00986  -0.03744
   4   42413.3    235.8   0.010838170   0.00314   0.05200   0.02084   0.00178
   5   42704.1    234.2   0.208325873   0.06080   0.24464  -0.01291   0.02806
   6   42940.6    232.9   0.142382726   0.04179  -0.20194   0.00943  -0.03026
   7   46682.6    214.2   0.000031457   0.00001  -0.00302  -0.00005   0.00095
   8   47215.5    211.8   0.149024586   0.04809  -0.21348  -0.01070   0.04900
   9   48837.0    204.8   0.003933713   0.00131   0.02131  -0.02916  -0.00292
  10   51083.4    195.8   0.006763513   0.00236  -0.00749  -0.00487  -0.04777

-------------------------------------------------------------------
                             CD SPECTRUM
-------------------------------------------------------------------
State  Energy     Wavelength     R         MX        MY        MZ   
       (cm-1)       (nm)     (1e40*cgs)   (au)      (au)      (au)  
-------------------------------------------------------------------
   1   36418.0    274.6     22.61176   0.00915   0.14226   0.01205
   2   40473.5    247.1     -0.05948   0.17721  -0.12899   0.26163
   3   41860.8    238.9    -35.34389  -0.09538   0.08668   0.03272
   4   42413.3    235.8    -59.29576   0.34474  -0.05672  -0.07492
   5   42704.1    234.2     51.84682  -0.06112  -0.32950  -0.10585
   6   42940.6    232.9    -25.18417  -0.04371   0.41100   0.13861
   7   46682.6    214.2      0.33321   0.02886   0.00414  -0.01497
   8   47215.5    211.8     -7.92555  -0.00912   0.05326   0.04714
   9   48837.0    204.8     22.26067  -0.10137   0.16671  -0.17305
  10   51083.4    195.8     56.95142   0.00633   0.42602   0.14137

-------------------------------------------------------------------
         CD SPECTRUM VIA TRANSITION VELOCITY DIPOLE MOMENTS        
-------------------------------------------------------------------
State  Energy     Wavelength     R         MX        MY        MZ   
       (cm-1)       (nm)     (1e40*cgs)   (au)      (au)      (au)  
-------------------------------------------------------------------
   1   36418.0    274.6     -7.11322   0.00915   0.14226   0.01205
   2   40473.5    247.1      1.67827   0.17721  -0.12899   0.26163
   3   41860.8    238.9     16.91600  -0.09538   0.08668   0.03272
   4   42413.3    235.8     40.52788   0.34474  -0.05672  -0.07492
   5   42704.1    234.2    -33.11946  -0.06112  -0.32950  -0.10585
   6   42940.6    232.9     20.50562  -0.04371   0.41100   0.13861
   7   46682.6    214.2     -0.22528   0.02886   0.00414  -0.01497
   8   47215.5    211.8      8.07811  -0.00912   0.05326   0.04714
   9   48837.0    204.8    -13.80575  -0.10137   0.16671  -0.17305
  10   51083.4    195.8    -17.97607   0.00633   0.42602   0.14137

Total run time:     1042.041 sec

           *** ORCA-CIS/TD-DFT FINISHED WITHOUT ERROR ***

Maximum memory used throughout the entire CIS-calculation: 1309.7 MB

-----------------------
CIS/TD-DFT TOTAL ENERGY
-----------------------

    E(SCF)  =  -1047.257198665 Eh
    DE(CIS) =      0.165932808 Eh (Root  1)
    ----------------------------- ---------
    E(tot)  =  -1047.091265857 Eh



-------------------------------------------------------------------------------
                          DFT DISPERSION CORRECTION                            
                                                                               
                              DFTD3 V3.1  Rev 1                                
                              USING zero damping                               
-------------------------------------------------------------------------------
The omegaB97X-D3 functional is recognized. Fit by Chai et al.
Active option DFTDOPT                   ...         3   

molecular C6(AA) [au] = 11464.377597 


            DFT-D V3
 parameters
 s6 scaling factor         :     1.0000 
 rs6 scaling factor        :     1.2810 
 s8 scaling factor         :     1.0000 
 rs8 scaling factor        :     1.0940 
 Damping factor alpha6     :    14.0000 
 Damping factor alpha8     :    16.0000 
 ad hoc parameters k1-k3   :    16.0000     1.3333    -4.0000 

 Edisp/kcal,au: -5.991522686016  -0.009548098148 
 E6   /kcal   :  -2.783953442 
 E8   /kcal   :  -3.207569244 
 % E8         :  53.535126419 

-------------------------   ----------------
Dispersion correction           -0.009548098
-------------------------   ----------------


-------------------------   --------------------
FINAL SINGLE POINT ENERGY     -1047.100813955036
-------------------------   --------------------


                            ***************************************
                            *     ORCA property calculations      *
                            ***************************************

                                    ---------------------
                                    Active property flags
                                    ---------------------
   (+) Dipole Moment


------------------------------------------------------------------------------
                       ORCA ELECTRIC PROPERTIES CALCULATION
------------------------------------------------------------------------------

Dipole Moment Calculation                       ... on
Quadrupole Moment Calculation                   ... off
Polarizability Calculation                      ... off
GBWName                                         ... wb97x-d3-train-18_job2.gbw
Electron density                                ... wb97x-d3-train-18_job2.scfp
The origin for moment calculation is the CENTER OF MASS  = ( 0.675926, -0.158317  0.026349)

-------------
DIPOLE MOMENT
-------------
                                X             Y             Z
Electronic contribution:      6.47595      -1.65432       5.02538
Nuclear contribution   :     -7.71371       1.26585      -3.80666
                        -----------------------------------------
Total Dipole Moment    :     -1.23776      -0.38847       1.21872
                        -----------------------------------------
Magnitude (a.u.)       :      1.77995
Magnitude (Debye)      :      4.52428



--------------------
Rotational spectrum 
--------------------
 
Rotational constants in cm-1:     0.036823     0.006967     0.005924 
Rotational constants in MHz :  1103.926716   208.869833   177.591282 

 Dipole components along the rotational axes: 
x,y,z [a.u.] :    -1.253215    -1.261262    -0.083116 
x,y,z [Debye]:    -3.185419    -3.205873    -0.211263 

 

Timings for individual modules:

Sum of individual times         ...     1455.105 sec (=  24.252 min)
GTO integral calculation        ...        3.849 sec (=   0.064 min)   0.3 %
SCF iterations                  ...      408.338 sec (=   6.806 min)  28.1 %
CIS module                      ...     1042.918 sec (=  17.382 min)  71.7 %



                             ****ORCA TERMINATED NORMALLY****
TOTAL RUN TIME: 0 days 6 hours 4 minutes 49 seconds 85 msec
