
                                 *****************
                                 * O   R   C   A *
                                 *****************

                                            #,                                       
                                            ###                                      
                                            ####                                     
                                            #####                                    
                                            ######                                   
                                           ########,                                 
                                     ,,################,,,,,                         
                               ,,#################################,,                 
                          ,,##########################################,,             
                       ,#########################################, ''#####,          
                    ,#############################################,,   '####,        
                  ,##################################################,,,,####,       
                ,###########''''           ''''###############################       
              ,#####''   ,,,,##########,,,,          '''####'''          '####       
            ,##' ,,,,###########################,,,                        '##       
           ' ,,###''''                  '''############,,,                           
         ,,##''                                '''############,,,,        ,,,,,,###''
      ,#''                                            '''#######################'''  
     '                                                          ''''####''''         
             ,#######,   #######,   ,#######,      ##                                
            ,#'     '#,  ##    ##  ,#'     '#,    #''#        ######   ,####,        
            ##       ##  ##   ,#'  ##            #'  '#       #        #'  '#        
            ##       ##  #######   ##           ,######,      #####,   #    #        
            '#,     ,#'  ##    ##  '#,     ,#' ,#      #,         ##   #,  ,#        
             '#######'   ##     ##  '#######'  #'      '#     #####' # '####'        



                  #######################################################
                  #                        -***-                        #
                  #          Department of theory and spectroscopy      #
                  #    Directorship and core code : Frank Neese         #
                  #        Max Planck Institute fuer Kohlenforschung    #
                  #                Kaiser Wilhelm Platz 1               #
                  #                 D-45470 Muelheim/Ruhr               #
                  #                      Germany                        #
                  #                                                     #
                  #                  All rights reserved                #
                  #                        -***-                        #
                  #######################################################


                         Program Version 5.0.2 -  RELEASE  -


 With contributions from (in alphabetic order):
   Daniel Aravena         : Magnetic Suceptibility
   Michael Atanasov       : Ab Initio Ligand Field Theory (pilot matlab implementation)
   Alexander A. Auer      : GIAO ZORA, VPT2 properties, NMR spectrum
   Ute Becker             : Parallelization
   Giovanni Bistoni       : ED, misc. LED, open-shell LED, HFLD
   Martin Brehm           : Molecular dynamics
   Dmytro Bykov           : SCF Hessian
   Vijay G. Chilkuri      : MRCI spin determinant printing, contributions to CSF-ICE
   Dipayan Datta          : RHF DLPNO-CCSD density
   Achintya Kumar Dutta   : EOM-CC, STEOM-CC
   Dmitry Ganyushin       : Spin-Orbit,Spin-Spin,Magnetic field MRCI
   Miquel Garcia          : C-PCM and meta-GGA Hessian, CC/C-PCM, Gaussian charge scheme
   Yang Guo               : DLPNO-NEVPT2, F12-NEVPT2, CIM, IAO-localization
   Andreas Hansen         : Spin unrestricted coupled pair/coupled cluster methods
   Benjamin Helmich-Paris : MC-RPA, TRAH-SCF, COSX integrals
   Lee Huntington         : MR-EOM, pCC
   Robert Izsak           : Overlap fitted RIJCOSX, COSX-SCS-MP3, EOM
   Marcus Kettner         : VPT2
   Christian Kollmar      : KDIIS, OOCD, Brueckner-CCSD(T), CCSD density, CASPT2, CASPT2-K
   Simone Kossmann        : Meta GGA functionals, TD-DFT gradient, OOMP2, MP2 Hessian
   Martin Krupicka        : Initial AUTO-CI
   Lucas Lang             : DCDCAS
   Marvin Lechner         : AUTO-CI (C++ implementation), FIC-MRCC
   Dagmar Lenk            : GEPOL surface, SMD
   Dimitrios Liakos       : Extrapolation schemes; Compound Job, initial MDCI parallelization
   Dimitrios Manganas     : Further ROCIS development; embedding schemes
   Dimitrios Pantazis     : SARC Basis sets
   Anastasios Papadopoulos: AUTO-CI, single reference methods and gradients
   Taras Petrenko         : DFT Hessian,TD-DFT gradient, ASA, ECA, R-Raman, ABS, FL, XAS/XES, NRVS
   Peter Pinski           : DLPNO-MP2, DLPNO-MP2 Gradient
   Christoph Reimann      : Effective Core Potentials
   Marius Retegan         : Local ZFS, SOC
   Christoph Riplinger    : Optimizer, TS searches, QM/MM, DLPNO-CCSD(T), (RO)-DLPNO pert. Triples
   Tobias Risthaus        : Range-separated hybrids, TD-DFT gradient, RPA, STAB
   Michael Roemelt        : Original ROCIS implementation
   Masaaki Saitow         : Open-shell DLPNO-CCSD energy and density
   Barbara Sandhoefer     : DKH picture change effects
   Avijit Sen             : IP-ROCIS
   Kantharuban Sivalingam : CASSCF convergence, NEVPT2, FIC-MRCI
   Bernardo de Souza      : ESD, SOC TD-DFT
   Georgi Stoychev        : AutoAux, RI-MP2 NMR, DLPNO-MP2 response
   Willem Van den Heuvel  : Paramagnetic NMR
   Boris Wezisla          : Elementary symmetry handling
   Frank Wennmohs         : Technical directorship


 We gratefully acknowledge several colleagues who have allowed us to
 interface, adapt or use parts of their codes:
   Stefan Grimme, W. Hujo, H. Kruse, P. Pracht,  : VdW corrections, initial TS optimization,
                  C. Bannwarth, S. Ehlert          DFT functionals, gCP, sTDA/sTD-DF
   Ed Valeev, F. Pavosevic, A. Kumar             : LibInt (2-el integral package), F12 methods
   Garnet Chan, S. Sharma, J. Yang, R. Olivares  : DMRG
   Ulf Ekstrom                                   : XCFun DFT Library
   Mihaly Kallay                                 : mrcc  (arbitrary order and MRCC methods)
   Jiri Pittner, Ondrej Demel                    : Mk-CCSD
   Frank Weinhold                                : gennbo (NPA and NBO analysis)
   Christopher J. Cramer and Donald G. Truhlar   : smd solvation model
   Lars Goerigk                                  : TD-DFT with DH, B97 family of functionals
   V. Asgeirsson, H. Jonsson                     : NEB implementation
   FAccTs GmbH                                   : IRC, NEB, NEB-TS, DLPNO-Multilevel, CI-OPT
                                                   MM, QMMM, 2- and 3-layer-ONIOM, Crystal-QMMM,
                                                   LR-CPCM, SF, NACMEs, symmetry and pop. for TD-DFT,
                                                   nearIR, NL-DFT gradient (VV10), updates on ESD,
                                                   ML-optimized integration grids
   S Lehtola, MJT Oliveira, MAL Marques          : LibXC Library
   Liviu Ungur et al                             : ANISO software


 Your calculation uses the libint2 library for the computation of 2-el integrals
 For citations please refer to: http://libint.valeyev.net

 Your ORCA version has been built with support for libXC version: 5.1.0
 For citations please refer to: https://tddft.org/programs/libxc/

 This ORCA versions uses:
   CBLAS   interface :  Fast vector & matrix operations
   LAPACKE interface :  Fast linear algebra routines
   SCALAPACK package :  Parallel linear algebra routines
   Shared memory     :  Shared parallel matrices
   BLAS/LAPACK       :  OpenBLAS 0.3.15  USE64BITINT DYNAMIC_ARCH NO_AFFINITY SkylakeX SINGLE_THREADED
        Core in use  :  SkylakeX
   Copyright (c) 2011-2014, The OpenBLAS Project


Your calculation utilizes the SMD solvation module
Please cite in your paper:
A.V. Marenich, C.J. Cramer, D.G. Truhlar J. Phys. Chem. B, 113, (2009), 6378 

XCFun DFT library Copyright 2009-2010 Ulf Ekstrom and contributors.
See http://admol.org/xcfun for more information.
This is free software; see the source code for copying conditions.
There is ABSOLUTELY NO WARRANTY; not even for MERCHANTABILITY or FITNESS FOR A PARTICULAR PURPOSE.
For details see the documentation.
Scientific users of this library should cite U. Ekstrom, L. Visscher, R. Bast, A. J. Thorvaldsen and K. Ruud;
J.Chem.Theor.Comp. 2010, DOI: 10.1021/ct100117s
XCFun Version 0.99 

================================================================================

----- Orbital basis set information -----
Your calculation utilizes the basis: aug-cc-pVTZ 
    H, B-Ne : Obtained from the ccRepo (grant-hill.group.shef.ac.uk/ccrepo) Feb. 2017
              R. A. Kendall, T. H. Dunning, Jr., R. J. Harrison, J. Chem. Phys. 96, 6796 (1992)
         He : Obtained from the ccRepo (grant-hill.group.shef.ac.uk/ccrepo) Feb. 2017
              D. E. Woon, T. H. Dunning, Jr., J. Chem. Phys. 100, 2975 (1994)
  Li-Be, Na : Obtained from the ccRepo (grant-hill.group.shef.ac.uk/ccrepo) Feb. 2017
              B. P. Prascher, D. E. Woon, K. A. Peterson, T. H. Dunning, Jr., A. K. Wilson, Theor. Chem. Acc. 128, 69 (2011)
         Mg : Obtained from the Peterson Research Group Website (tyr0.chem.wsu.edu/~kipeters) Feb. 2017
              B. P. Prascher, D. E. Woon, K. A. Peterson, T. H. Dunning, Jr., A. K. Wilson, Theor. Chem. Acc. 128, 69 (2011)
      Al-Ar : Obtained from the ccRepo (grant-hill.group.shef.ac.uk/ccrepo) Feb. 2017
              D. E. Woon, T. H. Dunning, Jr., J. Chem. Phys. 98, 1358 (1993)
      Sc-Zn : Obtained from the ccRepo (grant-hill.group.shef.ac.uk/ccrepo) Feb. 2017
              N. B. Balabanov, K. A. Peterson, J. Chem. Phys. 123, 064107 (2005)
              N. B. Balabanov, K. A. Peterson, J. Chem. Phys. 125, 074110 (2006)
      Ga-Kr : Obtained from the ccRepo (grant-hill.group.shef.ac.uk/ccrepo) Feb. 2017
              A. K. Wilson, D. E. Woon, K. A. Peterson, T. H. Dunning, Jr., J. Chem. Phys. 110, 7667 (1999)
     Ag, Au : Obtained from the Peterson Research Group Website (tyr0.chem.wsu.edu/~kipeters) Feb. 2017
              K. A. Peterson, C. Puzzarini, Theor. Chem. Acc. 114, 283 (2005)

The basis set includes element-specific modifications.

Your calculation utilizes the basis: cc-pVTZ 
       H, B-Ne : Obtained from the ccRepo (grant-hill.group.shef.ac.uk/ccrepo) Feb. 2017
                 T. H. Dunning, Jr., J. Chem. Phys. 90, 1007 (1989)
            He : Obtained from the ccRepo (grant-hill.group.shef.ac.uk/ccrepo) Feb. 2017
                 D. E. Woon, T. H. Dunning, Jr., J. Chem. Phys. 100, 2975 (1994)
  Li-Be, Na-Mg : Obtained from the ccRepo (grant-hill.group.shef.ac.uk/ccrepo) Feb. 2017
                 B. P. Prascher, D. E. Woon, K. A. Peterson, T. H. Dunning, Jr., A. K. Wilson, Theor. Chem. Acc. 128, 69 (2011)
         Al-Ar : Obtained from the ccRepo (grant-hill.group.shef.ac.uk/ccrepo) Feb. 2017
                 D. E. Woon, T. H. Dunning, Jr., J. Chem. Phys. 98, 1358 (1993)
            Ca : Obtained from the Peterson Research Group Website (tyr0.chem.wsu.edu/~kipeters) Feb. 2017
                 J. Koput, K. A. Peterson, J. Phys. Chem. 106, 9595 (2002)
         Sc-Zn : Obtained from the ccRepo (grant-hill.group.shef.ac.uk/ccrepo) Feb. 2017
                 N. B. Balabanov, K. A. Peterson, J. Chem. Phys. 123, 064107 (2005)
                 N. B. Balabanov, K. A. Peterson, J. Chem. Phys. 125, 074110 (2006)
         Ga-Kr : Obtained from the ccRepo (grant-hill.group.shef.ac.uk/ccrepo) Feb. 2017
                 A. K. Wilson, D. E. Woon, K. A. Peterson, T. H. Dunning, Jr., J. Chem. Phys. 110, 7667 (1999)
             Y : Obtained from the ccRepo (grant-hill.group.shef.ac.uk/ccrepo) Feb. 2017
                 K. A. Peterson, D. Figgen, M. Dolg, H. Stoll, J. Chem. Phys. 126, 124101 (2007)
        Ag, Au : Obtained from the Peterson Research Group Website (tyr0.chem.wsu.edu/~kipeters) Feb. 2017
                 K. A. Peterson, C. Puzzarini, Theor. Chem. Acc. 114, 283 (2005)

----- AuxJ basis set information -----
Your calculation utilizes the auxiliary basis: aug-cc-pVTZ/JK 
  H, B-F, Al-Cl, Ga-Br : Obtained from the TURBOMOLE 7.0 basis set library

The basis set includes element-specific modifications.

Your calculation utilizes the auxiliary basis: cc-pVTZ/JK 
  H, B-F, Al-Cl, Ga-Br : Obtained from the TURBOMOLE 7.0 basis set library

----- AuxC basis set information -----
Your calculation utilizes the auxiliary basis: aug-cc-pVTZ/C 
  H-He, B-F, Al-Ar, Ga-Kr : Obtained from the EMSL Basis Set Exchange (bse.pnl.gov) Feb. 2017
                            F. Weigend, A. Kohn, C. Hattig, J. Chem. Phys. 116, 3175 (2002)
                   Be, Mg : Obtained from the TURBOMOLE 7.0 basis set library
                            C. Haettig, Phys. Chem. Chem. Phys. 7, 59 (2005)
                       Ne : Obtained from the EMSL Basis Set Exchange (bse.pnl.gov) Feb. 2017
                            C. Haettig, Phys. Chem. Chem. Phys. 7, 59 (2005)
                            F. Weigend, A. Kohn, C. Hattig, J. Chem. Phys. 116, 3175 (2002)
                    Sc-Zn : Obtained from the EMSL Basis Set Exchange (bse.pnl.gov) Feb. 2017
                            J. G. Hill, J. A. Platts, J. Chem. Phys. 128, 044104 (2008)

The basis set includes element-specific modifications.

Your calculation utilizes the auxiliary basis: cc-pVTZ/C 
  Obtained from the EMSL Basis Set Exchange (bse.pnl.gov) Feb. 2017
  H-He, B-F, Al-Ar, Ga-Kr : F. Weigend, A. Kohn, C. Hattig, J. Chem. Phys. 116, 3175 (2002)
             Li-Be, Na-Mg : C. Haettig, Phys. Chem. Chem. Phys. 7, 59 (2005)
                       Ne : C. Haettig, Phys. Chem. Chem. Phys. 7, 59 (2005)
                            F. Weigend, A. Kohn, C. Hattig, J. Chem. Phys. 116, 3175 (2002)
                    Sc-Zn : J. G. Hill, J. A. Platts, J. Chem. Phys. 128, 044104 (2008)

================================================================================
                                        WARNINGS
                       Please study these warnings very carefully!
================================================================================


WARNING: Geometry Optimization
  ===> : Switching off AutoStart
         For restart on a previous wavefunction, please use MOREAD

INFO   : the flag for use of the SHARK integral package has been found!



***************************************
The coordinates will be read from file: 
***************************************


Your calculation utilizes the SMD solvation module
Please cite in your paper:
A.V. Marenich, C.J. Cramer, D.G. Truhlar J. Phys. Chem. B, 113, (2009), 6378 

XCFun DFT library Copyright 2009-2010 Ulf Ekstrom and contributors.
See http://admol.org/xcfun for more information.
This is free software; see the source code for copying conditions.
There is ABSOLUTELY NO WARRANTY; not even for MERCHANTABILITY or FITNESS FOR A PARTICULAR PURPOSE.
For details see the documentation.
Scientific users of this library should cite U. Ekstrom, L. Visscher, R. Bast, A. J. Thorvaldsen and K. Ruud;
J.Chem.Theor.Comp. 2010, DOI: 10.1021/ct100117s
XCFun Version 0.99 

================================================================================

----- Orbital basis set information -----
Your calculation utilizes the basis: aug-cc-pVTZ 
    H, B-Ne : Obtained from the ccRepo (grant-hill.group.shef.ac.uk/ccrepo) Feb. 2017
              R. A. Kendall, T. H. Dunning, Jr., R. J. Harrison, J. Chem. Phys. 96, 6796 (1992)
         He : Obtained from the ccRepo (grant-hill.group.shef.ac.uk/ccrepo) Feb. 2017
              D. E. Woon, T. H. Dunning, Jr., J. Chem. Phys. 100, 2975 (1994)
  Li-Be, Na : Obtained from the ccRepo (grant-hill.group.shef.ac.uk/ccrepo) Feb. 2017
              B. P. Prascher, D. E. Woon, K. A. Peterson, T. H. Dunning, Jr., A. K. Wilson, Theor. Chem. Acc. 128, 69 (2011)
         Mg : Obtained from the Peterson Research Group Website (tyr0.chem.wsu.edu/~kipeters) Feb. 2017
              B. P. Prascher, D. E. Woon, K. A. Peterson, T. H. Dunning, Jr., A. K. Wilson, Theor. Chem. Acc. 128, 69 (2011)
      Al-Ar : Obtained from the ccRepo (grant-hill.group.shef.ac.uk/ccrepo) Feb. 2017
              D. E. Woon, T. H. Dunning, Jr., J. Chem. Phys. 98, 1358 (1993)
      Sc-Zn : Obtained from the ccRepo (grant-hill.group.shef.ac.uk/ccrepo) Feb. 2017
              N. B. Balabanov, K. A. Peterson, J. Chem. Phys. 123, 064107 (2005)
              N. B. Balabanov, K. A. Peterson, J. Chem. Phys. 125, 074110 (2006)
      Ga-Kr : Obtained from the ccRepo (grant-hill.group.shef.ac.uk/ccrepo) Feb. 2017
              A. K. Wilson, D. E. Woon, K. A. Peterson, T. H. Dunning, Jr., J. Chem. Phys. 110, 7667 (1999)
     Ag, Au : Obtained from the Peterson Research Group Website (tyr0.chem.wsu.edu/~kipeters) Feb. 2017
              K. A. Peterson, C. Puzzarini, Theor. Chem. Acc. 114, 283 (2005)

The basis set includes element-specific modifications.

Your calculation utilizes the basis: cc-pVTZ 
       H, B-Ne : Obtained from the ccRepo (grant-hill.group.shef.ac.uk/ccrepo) Feb. 2017
                 T. H. Dunning, Jr., J. Chem. Phys. 90, 1007 (1989)
            He : Obtained from the ccRepo (grant-hill.group.shef.ac.uk/ccrepo) Feb. 2017
                 D. E. Woon, T. H. Dunning, Jr., J. Chem. Phys. 100, 2975 (1994)
  Li-Be, Na-Mg : Obtained from the ccRepo (grant-hill.group.shef.ac.uk/ccrepo) Feb. 2017
                 B. P. Prascher, D. E. Woon, K. A. Peterson, T. H. Dunning, Jr., A. K. Wilson, Theor. Chem. Acc. 128, 69 (2011)
         Al-Ar : Obtained from the ccRepo (grant-hill.group.shef.ac.uk/ccrepo) Feb. 2017
                 D. E. Woon, T. H. Dunning, Jr., J. Chem. Phys. 98, 1358 (1993)
            Ca : Obtained from the Peterson Research Group Website (tyr0.chem.wsu.edu/~kipeters) Feb. 2017
                 J. Koput, K. A. Peterson, J. Phys. Chem. 106, 9595 (2002)
         Sc-Zn : Obtained from the ccRepo (grant-hill.group.shef.ac.uk/ccrepo) Feb. 2017
                 N. B. Balabanov, K. A. Peterson, J. Chem. Phys. 123, 064107 (2005)
                 N. B. Balabanov, K. A. Peterson, J. Chem. Phys. 125, 074110 (2006)
         Ga-Kr : Obtained from the ccRepo (grant-hill.group.shef.ac.uk/ccrepo) Feb. 2017
                 A. K. Wilson, D. E. Woon, K. A. Peterson, T. H. Dunning, Jr., J. Chem. Phys. 110, 7667 (1999)
             Y : Obtained from the ccRepo (grant-hill.group.shef.ac.uk/ccrepo) Feb. 2017
                 K. A. Peterson, D. Figgen, M. Dolg, H. Stoll, J. Chem. Phys. 126, 124101 (2007)
        Ag, Au : Obtained from the Peterson Research Group Website (tyr0.chem.wsu.edu/~kipeters) Feb. 2017
                 K. A. Peterson, C. Puzzarini, Theor. Chem. Acc. 114, 283 (2005)

----- AuxJ basis set information -----
Your calculation utilizes the auxiliary basis: aug-cc-pVTZ/JK 
  H, B-F, Al-Cl, Ga-Br : Obtained from the TURBOMOLE 7.0 basis set library

The basis set includes element-specific modifications.

Your calculation utilizes the auxiliary basis: cc-pVTZ/JK 
  H, B-F, Al-Cl, Ga-Br : Obtained from the TURBOMOLE 7.0 basis set library

----- AuxC basis set information -----
Your calculation utilizes the auxiliary basis: aug-cc-pVTZ/C 
  H-He, B-F, Al-Ar, Ga-Kr : Obtained from the EMSL Basis Set Exchange (bse.pnl.gov) Feb. 2017
                            F. Weigend, A. Kohn, C. Hattig, J. Chem. Phys. 116, 3175 (2002)
                   Be, Mg : Obtained from the TURBOMOLE 7.0 basis set library
                            C. Haettig, Phys. Chem. Chem. Phys. 7, 59 (2005)
                       Ne : Obtained from the EMSL Basis Set Exchange (bse.pnl.gov) Feb. 2017
                            C. Haettig, Phys. Chem. Chem. Phys. 7, 59 (2005)
                            F. Weigend, A. Kohn, C. Hattig, J. Chem. Phys. 116, 3175 (2002)
                    Sc-Zn : Obtained from the EMSL Basis Set Exchange (bse.pnl.gov) Feb. 2017
                            J. G. Hill, J. A. Platts, J. Chem. Phys. 128, 044104 (2008)

The basis set includes element-specific modifications.

Your calculation utilizes the auxiliary basis: cc-pVTZ/C 
  Obtained from the EMSL Basis Set Exchange (bse.pnl.gov) Feb. 2017
  H-He, B-F, Al-Ar, Ga-Kr : F. Weigend, A. Kohn, C. Hattig, J. Chem. Phys. 116, 3175 (2002)
             Li-Be, Na-Mg : C. Haettig, Phys. Chem. Chem. Phys. 7, 59 (2005)
                       Ne : C. Haettig, Phys. Chem. Chem. Phys. 7, 59 (2005)
                            F. Weigend, A. Kohn, C. Hattig, J. Chem. Phys. 116, 3175 (2002)
                    Sc-Zn : J. G. Hill, J. A. Platts, J. Chem. Phys. 128, 044104 (2008)

================================================================================
                                        WARNINGS
                       Please study these warnings very carefully!
================================================================================

INFO   : Checking CIS options ...

INFO   : the flag for use of the SHARK integral package has been found!

================================================================================
                                       INPUT FILE
================================================================================
NAME = m062x-train-6.inp
|  1> ! m062x defgrid3 aug-cc-PVTZ RIJCOSX Opt
|  2> %maxcore 4000
|  3> %basis
|  4>  AuxJ "aug-cc-PVTZ/JK"
|  5>  AuxC "aug-cc-PVTZ/C"
|  6>  newGTO H "cc-PVTZ" end
|  7>  newAuxJGTO H "cc-PVTZ/JK" end
|  8>  newAuxCGTO H "cc-PVTZ/C" end
|  9> end
| 10> %cpcm
| 11>  SMD true
| 12>  SMDsolvent "toluene"
| 13> end
| 14> %pal nprocs 4 end
| 15> * xyz 0 1
| 16> C         -5.31150        2.61790        1.32570
| 17> O         -4.65010        1.57880        0.62110
| 18> C         -5.43770        0.76910       -0.11470
| 19> O         -6.63310        0.89650       -0.19020
| 20> C         -4.64760       -0.26950       -0.79620
| 21> C         -5.35990       -1.18080       -1.59740
| 22> N         -5.92160       -1.93440       -2.25580
| 23> C         -3.28260       -0.38980       -0.68930
| 24> C         -2.48560       -1.38640       -1.33270
| 25> C         -1.16260       -1.28720       -1.06210
| 26> C         -0.83540       -0.21040       -0.19360
| 27> C          0.41760        0.12990        0.25070
| 28> C          0.74620        1.20760        1.11690
| 29> C          2.07100        1.29910        1.38500
| 30> C          2.84920        0.29380        0.74020
| 31> C          4.21240        0.11950        0.81350
| 32> C          5.03340        0.96040        1.57580
| 33> N          5.69720        1.65530        2.20440
| 34> C          4.78920       -0.99170        0.05580
| 35> O          4.09660       -1.73700       -0.61280
| 36> O          6.10900       -1.09560        0.17300
| 37> C          6.71900       -2.15840       -0.54510
| 38> S          1.86150       -0.76880       -0.21460
| 39> S         -2.28500        0.67120        0.26550
| 40> H         -6.03230        2.19710        2.02970
| 41> H         -4.53570        3.16730        1.85220
| 42> H         -5.84090        3.26980        0.62790
| 43> H         -2.93840       -2.12910       -1.96550
| 44> H         -0.39970       -1.94040       -1.44770
| 45> H         -0.01040        1.86800        1.50330
| 46> H          2.53440        2.03820        2.01450
| 47> H          7.78330       -2.08840       -0.33750
| 48> H          6.32330       -3.11920       -0.20950
| 49> H          6.52710       -2.05250       -1.61490
| 50> *
| 51> 
| 52> 
| 53> $new_job
| 54> ! m062x defgrid3 aug-cc-PVTZ RIJCOSX SP
| 55> %maxcore 4000
| 56> %basis
| 57>  AuxJ "aug-cc-PVTZ/JK"
| 58>  AuxC "aug-cc-PVTZ/C"
| 59>  newGTO H "cc-PVTZ" end
| 60>  newAuxJGTO H "cc-PVTZ/JK" end
| 61>  newAuxCGTO H "cc-PVTZ/C" end
| 62> end
| 63> %cpcm
| 64>  SMD true
| 65>  SMDsolvent "toluene"
| 66> end
| 67> %pal nprocs 4 end
| 68> %tddft
| 69>  nroots 10
| 70>  maxdim 7
| 71> end
| 72> * xyzfile 0 1
| 73> 
| 74>                          ****END OF INPUT****
================================================================================


                 $$$$$$$$$$$$$$$$$$$$$$$$$$$$$$$$$$$$$$$$$$$$$$ 
                 $ THERE ARE  2 JOBS TO BE PROCESSED THIS RUN $
                 $$$$$$$$$$$$$$$$$$$$$$$$$$$$$$$$$$$$$$$$$$$$$$ 




                 $$$$$$$$$$$$$$$$  JOB NUMBER  1 $$$$$$$$$$$$$$


                       *****************************
                       * Geometry Optimization Run *
                       *****************************

Geometry optimization settings:
Update method            Update   .... BFGS
Choice of coordinates    CoordSys .... Z-matrix Internals
Initial Hessian          InHess   .... Almoef's Model

Convergence Tolerances:
Energy Change            TolE     ....  5.0000e-06 Eh
Max. Gradient            TolMAXG  ....  3.0000e-04 Eh/bohr
RMS Gradient             TolRMSG  ....  1.0000e-04 Eh/bohr
Max. Displacement        TolMAXD  ....  4.0000e-03 bohr
RMS Displacement         TolRMSD  ....  2.0000e-03 bohr
Strict Convergence                ....  False
------------------------------------------------------------------------------
                        ORCA OPTIMIZATION COORDINATE SETUP
------------------------------------------------------------------------------

The optimization will be done in new redundant internal coordinates
Making redundant internal coordinates   ...  (new redundants) done
Evaluating the initial hessian          ...  (Almloef) done
Evaluating the coordinates              ...  done
Calculating the B-matrix                .... done
Calculating the G-matrix                .... done
Diagonalizing the G-matrix              .... done
Small eigenvalue found = 1.655e-03
Small eigenvalue found = 3.776e-03
Small eigenvalue found = 6.630e-03
Small eigenvalue found = 1.828e-02
Small eigenvalue found = 2.075e-02
The first mode is                       ....   57
The number of degrees of freedom        ....   96

    -----------------------------------------------------------------
                    Redundant Internal Coordinates


    -----------------------------------------------------------------
         Definition                    Initial Value    Approx d2E/dq
    -----------------------------------------------------------------
      1. B(O   1,C   0)                  1.4190         0.502995   
      2. B(C   2,O   1)                  1.3481         0.652755   
      3. B(O   3,C   2)                  1.2045         1.106033   
      4. B(C   4,C   2)                  1.4722         0.461939   
      5. B(C   5,C   4)                  1.4070         0.586885   
      6. B(N   6,C   5)                  1.1476         1.363520   
      7. B(C   7,C   4)                  1.3745         0.661516   
      8. B(C   8,C   7)                  1.4291         0.541159   
      9. B(C   9,C   8)                  1.3540         0.713064   
     10. B(C  10,C   9)                  1.4216         0.556387   
     11. B(C  11,C  10)                  1.3723         0.666765   
     12. B(C  12,C  11)                  1.4212         0.557202   
     13. B(C  13,C  12)                  1.3547         0.711180   
     14. B(C  14,C  13)                  1.4255         0.548446   
     15. B(C  15,C  14)                  1.3763         0.657164   
     16. B(C  16,C  15)                  1.4008         0.600481   
     17. B(N  17,C  16)                  1.1483         1.359721   
     18. B(C  18,C  15)                  1.4634         0.477106   
     19. B(O  19,C  18)                  1.2175         1.054782   
     20. B(O  20,C  18)                  1.3291         0.700003   
     21. B(C  21,O  20)                  1.4203         0.500611   
     22. B(S  22,C  14)                  1.7368         0.471284   
     23. B(S  22,C  11)                  1.7632         0.427589   
     24. B(S  23,C  10)                  1.7576         0.436461   
     25. B(S  23,C   7)                  1.7414         0.463261   
     26. B(H  24,C   0)                  1.0919         0.357598   
     27. B(H  25,C   0)                  1.0867         0.364497   
     28. B(H  26,C   0)                  1.0919         0.357645   
     29. B(H  27,C   8)                  1.0757         0.379564   
     30. B(H  28,C   9)                  1.0758         0.379365   
     31. B(H  29,C  12)                  1.0760         0.379040   
     32. B(H  30,C  13)                  1.0758         0.379427   
     33. B(H  31,C  21)                  1.0866         0.364606   
     34. B(H  32,C  21)                  1.0919         0.357537   
     35. B(H  33,C  21)                  1.0920         0.357435   
     36. A(O   1,C   0,H  25)          106.1428         0.339323   
     37. A(O   1,C   0,H  26)          110.2341         0.338250   
     38. A(O   1,C   0,H  24)          110.2199         0.338243   
     39. A(H  24,C   0,H  25)          110.7159         0.291076   
     40. A(H  25,C   0,H  26)          110.7279         0.291082   
     41. A(H  24,C   0,H  26)          108.7885         0.290209   
     42. A(C   0,O   1,C   2)          116.0098         0.416513   
     43. A(O   1,C   2,C   4)          111.2749         0.412927   
     44. A(O   3,C   2,C   4)          125.3245         0.453991   
     45. A(O   1,C   2,O   3)          123.4006         0.480455   
     46. A(C   2,C   4,C   5)          116.6679         0.407845   
     47. A(C   5,C   4,C   7)          119.3641         0.434842   
     48. A(C   2,C   4,C   7)          123.9680         0.416601   
     49. L(C   4,C   5,N   6,C   2, 1) 181.1187         0.493005   
     50. L(C   4,C   5,N   6,C   2, 2) 180.0151         0.493005   
     51. A(C   8,C   7,S  23)          110.6244         0.424238   
     52. A(C   4,C   7,C   8)          125.4414         0.428550   
     53. A(C   4,C   7,S  23)          123.9342         0.439827   
     54. A(C   7,C   8,C   9)          113.8186         0.434366   
     55. A(C   7,C   8,H  27)          120.7693         0.347976   
     56. A(C   9,C   8,H  27)          125.4120         0.364661   
     57. A(C  10,C   9,H  28)          121.0424         0.349577   
     58. A(C   8,C   9,C  10)          113.7336         0.436542   
     59. A(C   8,C   9,H  28)          125.2239         0.364628   
     60. A(C   9,C  10,C  11)          126.5694         0.431302   
     61. A(C  11,C  10,S  23)          122.9626         0.435747   
     62. A(C   9,C  10,S  23)          110.4680         0.421830   
     63. A(C  10,C  11,C  12)          126.6193         0.431415   
     64. A(C  10,C  11,S  22)          122.4030         0.434139   
     65. A(C  12,C  11,S  22)          110.9776         0.420397   
     66. A(C  11,C  12,C  13)          113.4496         0.436450   
     67. A(C  13,C  12,H  29)          125.1046         0.364410   
     68. A(C  11,C  12,H  29)          121.4458         0.349613   
     69. A(C  14,C  13,H  30)          120.9345         0.348740   
     70. A(C  12,C  13,H  30)          125.6931         0.364474   
     71. A(C  12,C  13,C  14)          113.3724         0.435206   
     72. A(C  15,C  14,S  22)          121.0045         0.440667   
     73. A(C  13,C  14,S  22)          111.6969         0.426564   
     74. A(C  13,C  14,C  15)          127.2987         0.429072   
     75. A(C  16,C  15,C  18)          120.4358         0.411854   
     76. A(C  14,C  15,C  18)          117.3226         0.418513   
     77. A(C  14,C  15,C  16)          122.2416         0.436120   
     78. L(C  15,C  16,N  17,C  18, 2) 180.0676         0.494848   
     79. L(C  15,C  16,N  17,C  18, 1) 180.5672         0.494848   
     80. A(O  19,C  18,O  20)          124.4369         0.482448   
     81. A(C  15,C  18,O  20)          113.8976         0.420506   
     82. A(C  15,C  18,O  19)          121.6654         0.452742   
     83. A(C  18,O  20,C  21)          116.1295         0.421377   
     84. A(H  32,C  21,H  33)          108.8284         0.290175   
     85. A(O  20,C  21,H  33)          110.3201         0.337949   
     86. A(H  31,C  21,H  32)          110.6650         0.291081   
     87. A(O  20,C  21,H  32)          110.3276         0.337965   
     88. A(O  20,C  21,H  31)          106.0134         0.339071   
     89. A(H  31,C  21,H  33)          110.6732         0.291068   
     90. A(C  11,S  22,C  14)           90.5035         0.430470   
     91. A(C   7,S  23,C  10)           91.3553         0.430731   
     92. D(C   2,O   1,C   0,H  25)   -179.6820         0.020010   
     93. D(C   2,O   1,C   0,H  24)     60.3809         0.020010   
     94. D(C   2,O   1,C   0,H  26)    -59.7229         0.020010   
     95. D(C   4,C   2,O   1,C   0)   -179.8596         0.031512   
     96. D(O   3,C   2,O   1,C   0)      0.0977         0.031512   
     97. D(C   5,C   4,C   2,O   3)     -0.0122         0.014535   
     98. D(C   7,C   4,C   2,O   3)   -179.9447         0.014535   
     99. D(C   5,C   4,C   2,O   1)    179.9441         0.014535   
    100. D(C   7,C   4,C   2,O   1)      0.0116         0.014535   
    101. D(S  23,C   7,C   4,C   2)     -0.1488         0.030546   
    102. D(C   8,C   7,C   4,C   5)     -0.1197         0.030546   
    103. D(S  23,C   7,C   4,C   5)    179.9204         0.030546   
    104. D(C   8,C   7,C   4,C   2)    179.8111         0.030546   
    105. D(C   9,C   8,C   7,S  23)      0.0582         0.020013   
    106. D(C   9,C   8,C   7,C   4)   -179.9062         0.020013   
    107. D(H  27,C   8,C   7,S  23)   -179.9841         0.020013   
    108. D(H  27,C   8,C   7,C   4)      0.0515         0.020013   
    109. D(H  28,C   9,C   8,H  27)      0.0099         0.035925   
    110. D(H  28,C   9,C   8,C   7)    179.9653         0.035925   
    111. D(C  10,C   9,C   8,H  27)    179.9851         0.035925   
    112. D(C  10,C   9,C   8,C   7)     -0.0596         0.035925   
    113. D(S  23,C  10,C   9,H  28)   -179.9899         0.021195   
    114. D(S  23,C  10,C   9,C   8)      0.0337         0.021195   
    115. D(C  11,C  10,C   9,H  28)     -0.0384         0.021195   
    116. D(C  11,C  10,C   9,C   8)    179.9853         0.021195   
    117. D(S  22,C  11,C  10,S  23)    179.7664         0.031069   
    118. D(S  22,C  11,C  10,C   9)     -0.1795         0.031069   
    119. D(C  12,C  11,C  10,S  23)     -0.1808         0.031069   
    120. D(C  12,C  11,C  10,C   9)    179.8733         0.031069   
    121. D(C  13,C  12,C  11,S  22)     -0.0190         0.021259   
    122. D(C  13,C  12,C  11,C  10)    179.9333         0.021259   
    123. D(H  29,C  12,C  11,S  22)    179.9472         0.021259   
    124. D(H  29,C  12,C  11,C  10)     -0.1006         0.021259   
    125. D(H  30,C  13,C  12,H  29)      0.0217         0.035719   
    126. D(H  30,C  13,C  12,C  11)    179.9865         0.035719   
    127. D(C  14,C  13,C  12,H  29)   -179.9814         0.035719   
    128. D(C  14,C  13,C  12,C  11)     -0.0167         0.035719   
    129. D(S  22,C  14,C  13,H  30)   -179.9574         0.020573   
    130. D(S  22,C  14,C  13,C  12)      0.0456         0.020573   
    131. D(C  15,C  14,C  13,H  30)      0.0300         0.020573   
    132. D(C  15,C  14,C  13,C  12)   -179.9670         0.020573   
    133. D(C  18,C  15,C  14,S  22)      0.0655         0.030116   
    134. D(C  18,C  15,C  14,C  13)   -179.9208         0.030116   
    135. D(C  16,C  15,C  14,S  22)   -179.9704         0.030116   
    136. D(C  16,C  15,C  14,C  13)      0.0433         0.030116   
    137. D(O  20,C  18,C  15,C  16)     -0.0791         0.015498   
    138. D(O  20,C  18,C  15,C  14)    179.8856         0.015498   
    139. D(O  19,C  18,C  15,C  16)    179.9227         0.015498   
    140. D(O  19,C  18,C  15,C  14)     -0.1126         0.015498   
    141. D(C  21,O  20,C  18,O  19)      0.0716         0.036695   
    142. D(C  21,O  20,C  18,C  15)   -179.9265         0.036695   
    143. D(H  33,C  21,O  20,C  18)     59.9651         0.019814   
    144. D(H  32,C  21,O  20,C  18)    -60.3128         0.019814   
    145. D(H  31,C  21,O  20,C  18)    179.8289         0.019814   
    146. D(C  11,S  22,C  14,C  15)    179.9651         0.004773   
    147. D(C  11,S  22,C  14,C  13)     -0.0466         0.004773   
    148. D(C  14,S  22,C  11,C  12)      0.0375         0.004172   
    149. D(C  14,S  22,C  11,C  10)   -179.9171         0.004172   
    150. D(C   7,S  23,C  10,C  11)   -179.9533         0.004288   
    151. D(C   7,S  23,C  10,C   9)      0.0003         0.004288   
    152. D(C  10,S  23,C   7,C   8)     -0.0317         0.004658   
    153. D(C  10,S  23,C   7,C   4)    179.9334         0.004658   
    -----------------------------------------------------------------

Number of atoms                         .... 34
Number of degrees of freedom            .... 153

         *************************************************************
         *                GEOMETRY OPTIMIZATION CYCLE   1            *
         *************************************************************
---------------------------------
CARTESIAN COORDINATES (ANGSTROEM)
---------------------------------
  C     -5.311500    2.617900    1.325700
  O     -4.650100    1.578800    0.621100
  C     -5.437700    0.769100   -0.114700
  O     -6.633100    0.896500   -0.190200
  C     -4.647600   -0.269500   -0.796200
  C     -5.359900   -1.180800   -1.597400
  N     -5.921600   -1.934400   -2.255800
  C     -3.282600   -0.389800   -0.689300
  C     -2.485600   -1.386400   -1.332700
  C     -1.162600   -1.287200   -1.062100
  C     -0.835400   -0.210400   -0.193600
  C      0.417600    0.129900    0.250700
  C      0.746200    1.207600    1.116900
  C      2.071000    1.299100    1.385000
  C      2.849200    0.293800    0.740200
  C      4.212400    0.119500    0.813500
  C      5.033400    0.960400    1.575800
  N      5.697200    1.655300    2.204400
  C      4.789200   -0.991700    0.055800
  O      4.096600   -1.737000   -0.612800
  O      6.109000   -1.095600    0.173000
  C      6.719000   -2.158400   -0.545100
  S      1.861500   -0.768800   -0.214600
  S     -2.285000    0.671200    0.265500
  H     -6.032300    2.197100    2.029700
  H     -4.535700    3.167300    1.852200
  H     -5.840900    3.269800    0.627900
  H     -2.938400   -2.129100   -1.965500
  H     -0.399700   -1.940400   -1.447700
  H     -0.010400    1.868000    1.503300
  H      2.534400    2.038200    2.014500
  H      7.783300   -2.088400   -0.337500
  H      6.323300   -3.119200   -0.209500
  H      6.527100   -2.052500   -1.614900

----------------------------
CARTESIAN COORDINATES (A.U.)
----------------------------
  NO LB      ZA    FRAG     MASS         X           Y           Z
   0 C     6.0000    0    12.011  -10.037280    4.947114    2.505210
   1 O     8.0000    0    15.999   -8.787415    2.983500    1.173709
   2 C     6.0000    0    12.011  -10.275764    1.453388   -0.216752
   3 O     8.0000    0    15.999  -12.534742    1.694139   -0.359426
   4 C     6.0000    0    12.011   -8.782691   -0.509281   -1.504600
   5 C     6.0000    0    12.011  -10.128743   -2.231389   -3.018649
   6 N     7.0000    0    14.007  -11.190202   -3.655486   -4.262844
   7 C     6.0000    0    12.011   -6.203215   -0.736615   -1.302588
   8 C     6.0000    0    12.011   -4.697103   -2.619916   -2.518438
   9 C     6.0000    0    12.011   -2.196996   -2.432455   -2.007078
  10 C     6.0000    0    12.011   -1.578677   -0.397598   -0.365851
  11 C     6.0000    0    12.011    0.789150    0.245475    0.473754
  12 C     6.0000    0    12.011    1.410114    2.282033    2.110635
  13 C     6.0000    0    12.011    3.913623    2.454943    2.617271
  14 C     6.0000    0    12.011    5.384208    0.555202    1.398775
  15 C     6.0000    0    12.011    7.960282    0.225822    1.537292
  16 C     6.0000    0    12.011    9.511748    1.814893    2.977830
  17 N     7.0000    0    14.007   10.766148    3.128064    4.165712
  18 C     6.0000    0    12.011    9.050276   -1.874041    0.105447
  19 O     8.0000    0    15.999    7.741452   -3.282454   -1.158024
  20 O     8.0000    0    15.999   11.544337   -2.070384    0.326923
  21 C     6.0000    0    12.011   12.697070   -4.078785   -1.030090
  22 S    16.0000    0    32.060    3.517725   -1.452821   -0.405535
  23 S    16.0000    0    32.060   -4.318024    1.268384    0.501722
  24 H     1.0000    0     1.008  -11.399395    4.151917    3.835577
  25 H     1.0000    0     1.008   -8.571231    5.985330    3.500151
  26 H     1.0000    0     1.008  -11.037701    6.179027    1.186559
  27 H     1.0000    0     1.008   -5.552771   -4.023416   -3.714257
  28 H     1.0000    0     1.008   -0.755324   -3.666825   -2.735757
  29 H     1.0000    0     1.008   -0.019653    3.530008    2.840825
  30 H     1.0000    0     1.008    4.789322    3.851640    3.806853
  31 H     1.0000    0     1.008   14.708305   -3.946504   -0.637783
  32 H     1.0000    0     1.008   11.949305   -5.894434   -0.395898
  33 H     1.0000    0     1.008   12.334431   -3.878663   -3.051719

--------------------------------
INTERNAL COORDINATES (ANGSTROEM)
--------------------------------
 C      0   0   0     0.000000000000     0.00000000     0.00000000
 O      1   0   0     1.419027811567     0.00000000     0.00000000
 C      2   1   0     1.348083636129   116.00983956     0.00000000
 O      3   2   1     1.204538156307   123.40057175     0.09770678
 C      3   2   1     1.472205902719   111.27491516   180.14041460
 C      5   3   2     1.407039594326   116.66789833   179.94407210
 N      6   5   3     1.147567170147   178.88128524   180.40353640
 C      5   3   2     1.374454328088   123.96797581     0.00000000
 C      8   5   3     1.429120050940   125.44143313   179.81106810
 C      9   8   5     1.354028803239   113.81864005   180.09380971
 C     10   9   8     1.421566153930   113.73363373   359.94044803
 C     11  10   9     1.372303020473   126.56942426   179.98527685
 C     12  11  10     1.421167720573   126.61934751   179.87330763
 C     13  12  11     1.354749017346   113.44955798   179.93327545
 C     14  13  12     1.425478996688   113.37235999     0.00000000
 C     15  14  13     1.376251292461   127.29866565   180.03295495
 C     16  15  14     1.400805161327   122.24159761     0.04327516
 N     17  16  15     1.148326787112   179.43179271     3.43914765
 C     16  15  14     1.463411415153   117.32261351   180.07921738
 O     19  16  15     1.217453411840   121.66542487   359.88743277
 O     19  16  15     1.329060980542   113.89763110   179.88563077
 C     21  19  16     1.420320896840   116.12945843   180.07346017
 S     15  14  13     1.736753606589   111.69687385     0.04558049
 S      8   5   3     1.741427517871   123.93415051   359.85119078
 H      1   2   3     1.091898017216   110.21992254    60.38090407
 H      1   2   3     1.086696024655   106.14276601   180.31796191
 H      1   2   3     1.091862083782   110.23410837   300.27711547
 H      9   8   5     1.075670474634   120.76930895     0.05147593
 H     10   9   8     1.075813185456   125.22394084   179.96527464
 H     13  12  11     1.076046783370   121.44582420   359.89943251
 H     14  13  12     1.075768850637   125.69311770   179.98645600
 H     22  21  19     1.086615042230   106.01339089   179.82894333
 H     22  21  19     1.091944362136   110.32759206   299.68718242
 H     22  21  19     1.092022188419   110.32005145    59.96505232

---------------------------
INTERNAL COORDINATES (A.U.)
---------------------------
 C      0   0   0     0.000000000000     0.00000000     0.00000000
 O      1   0   0     2.681573940279     0.00000000     0.00000000
 C      2   1   0     2.547508877905   116.00983956     0.00000000
 O      3   2   1     2.276247233279   123.40057175     0.09770678
 C      3   2   1     2.782065968881   111.27491516   180.14041460
 C      5   3   2     2.658919492859   116.66789833   179.94407210
 N      6   5   3     2.168587671858   178.88128524   180.40353640
 C      5   3   2     2.597342263669   123.96797581     0.00000000
 C      8   5   3     2.700645508773   125.44143313   179.81106810
 C      9   8   5     2.558743615562   113.81864005   180.09380971
 C     10   9   8     2.686370712180   113.73363373   359.94044803
 C     11  10   9     2.593276881447   126.56942426   179.98527685
 C     12  11  10     2.685617782253   126.61934751   179.87330763
 C     13  12  11     2.560104622983   113.44955798   179.93327545
 C     14  13  12     2.693764913398   113.37235999     0.00000000
 C     15  14  13     2.600738034206   127.29866565   180.03295495
 C     16  15  14     2.647138121891   122.24159761     0.04327516
 N     17  16  15     2.170023139888   179.43179271     3.43914765
 C     16  15  14     2.765446795893   117.32261351   180.07921738
 O     19  16  15     2.300653529185   121.66542487   359.88743277
 O     19  16  15     2.511561268506   113.89763110   179.88563077
 C     21  19  16     2.684017517313   116.12945843   180.07346017
 S     15  14  13     3.281988678553   111.69687385     0.04558049
 S      8   5   3     3.290821090851   123.93415051   359.85119078
 H      1   2   3     2.063388218710   110.21992254    60.38090407
 H      1   2   3     2.053557877418   106.14276601   180.31796191
 H      1   2   3     2.063320314360   110.23410837   300.27711547
 H      9   8   5     2.032722607404   120.76930895     0.05147593
 H     10   9   8     2.032992291772   125.22394084   179.96527464
 H     13  12  11     2.033433727855   121.44582420   359.89943251
 H     14  13  12     2.032908511106   125.69311770   179.98645600
 H     22  21  19     2.053404842814   106.01339089   179.82894333
 H     22  21  19     2.063475797916   110.32759206   299.68718242
 H     22  21  19     2.063622868278   110.32005145    59.96505232

---------------------
BASIS SET INFORMATION
---------------------
There are 5 groups of distinct atoms

 Group   1 Type C   : 19s6p3d2f contracted to 5s4p3d2f pattern {88111/3111/111/11}
 Group   2 Type O   : 19s6p3d2f contracted to 5s4p3d2f pattern {88111/3111/111/11}
 Group   3 Type N   : 19s6p3d2f contracted to 5s4p3d2f pattern {88111/3111/111/11}
 Group   4 Type S   : 42s17p3d2f contracted to 6s5p3d2f pattern {131313111/77111/111/11}
 Group   5 Type H   : 5s2p1d contracted to 3s2p1d pattern {311/11/1}

Atom   0C    basis set group =>   1
Atom   1O    basis set group =>   2
Atom   2C    basis set group =>   1
Atom   3O    basis set group =>   2
Atom   4C    basis set group =>   1
Atom   5C    basis set group =>   1
Atom   6N    basis set group =>   3
Atom   7C    basis set group =>   1
Atom   8C    basis set group =>   1
Atom   9C    basis set group =>   1
Atom  10C    basis set group =>   1
Atom  11C    basis set group =>   1
Atom  12C    basis set group =>   1
Atom  13C    basis set group =>   1
Atom  14C    basis set group =>   1
Atom  15C    basis set group =>   1
Atom  16C    basis set group =>   1
Atom  17N    basis set group =>   3
Atom  18C    basis set group =>   1
Atom  19O    basis set group =>   2
Atom  20O    basis set group =>   2
Atom  21C    basis set group =>   1
Atom  22S    basis set group =>   4
Atom  23S    basis set group =>   4
Atom  24H    basis set group =>   5
Atom  25H    basis set group =>   5
Atom  26H    basis set group =>   5
Atom  27H    basis set group =>   5
Atom  28H    basis set group =>   5
Atom  29H    basis set group =>   5
Atom  30H    basis set group =>   5
Atom  31H    basis set group =>   5
Atom  32H    basis set group =>   5
Atom  33H    basis set group =>   5
---------------------------------
AUXILIARY/J BASIS SET INFORMATION
---------------------------------
There are 5 groups of distinct atoms

 Group   1 Type C   : 10s7p5d2f1g contracted to 10s7p5d2f1g pattern {1111111111/1111111/11111/11/1}
 Group   2 Type O   : 10s7p5d2f1g contracted to 10s7p5d2f1g pattern {1111111111/1111111/11111/11/1}
 Group   3 Type N   : 10s7p5d2f1g contracted to 10s7p5d2f1g pattern {1111111111/1111111/11111/11/1}
 Group   4 Type S   : 13s11p9d3f1g contracted to 13s11p9d3f1g pattern {1111111111111/11111111111/111111111/111/1}
 Group   5 Type H   : 4s3p2d1f contracted to 4s3p2d1f pattern {1111/111/11/1}

Atom   0C    basis set group =>   1
Atom   1O    basis set group =>   2
Atom   2C    basis set group =>   1
Atom   3O    basis set group =>   2
Atom   4C    basis set group =>   1
Atom   5C    basis set group =>   1
Atom   6N    basis set group =>   3
Atom   7C    basis set group =>   1
Atom   8C    basis set group =>   1
Atom   9C    basis set group =>   1
Atom  10C    basis set group =>   1
Atom  11C    basis set group =>   1
Atom  12C    basis set group =>   1
Atom  13C    basis set group =>   1
Atom  14C    basis set group =>   1
Atom  15C    basis set group =>   1
Atom  16C    basis set group =>   1
Atom  17N    basis set group =>   3
Atom  18C    basis set group =>   1
Atom  19O    basis set group =>   2
Atom  20O    basis set group =>   2
Atom  21C    basis set group =>   1
Atom  22S    basis set group =>   4
Atom  23S    basis set group =>   4
Atom  24H    basis set group =>   5
Atom  25H    basis set group =>   5
Atom  26H    basis set group =>   5
Atom  27H    basis set group =>   5
Atom  28H    basis set group =>   5
Atom  29H    basis set group =>   5
Atom  30H    basis set group =>   5
Atom  31H    basis set group =>   5
Atom  32H    basis set group =>   5
Atom  33H    basis set group =>   5
---------------------------------
AUXILIARY/C BASIS SET INFORMATION
---------------------------------
There are 5 groups of distinct atoms

 Group   1 Type C   : 9s7p6d4f2g contracted to 9s7p6d4f2g pattern {111111111/1111111/111111/1111/11}
 Group   2 Type O   : 9s7p6d4f2g contracted to 9s7p6d4f2g pattern {111111111/1111111/111111/1111/11}
 Group   3 Type N   : 9s7p6d4f2g contracted to 9s7p6d4f2g pattern {111111111/1111111/111111/1111/11}
 Group   4 Type S   : 11s9p8d6f3g contracted to 11s9p8d6f3g pattern {11111111111/111111111/11111111/111111/111}
 Group   5 Type H   : 4s3p2d1f contracted to 4s3p2d1f pattern {1111/111/11/1}

Atom   0C    basis set group =>   1
Atom   1O    basis set group =>   2
Atom   2C    basis set group =>   1
Atom   3O    basis set group =>   2
Atom   4C    basis set group =>   1
Atom   5C    basis set group =>   1
Atom   6N    basis set group =>   3
Atom   7C    basis set group =>   1
Atom   8C    basis set group =>   1
Atom   9C    basis set group =>   1
Atom  10C    basis set group =>   1
Atom  11C    basis set group =>   1
Atom  12C    basis set group =>   1
Atom  13C    basis set group =>   1
Atom  14C    basis set group =>   1
Atom  15C    basis set group =>   1
Atom  16C    basis set group =>   1
Atom  17N    basis set group =>   3
Atom  18C    basis set group =>   1
Atom  19O    basis set group =>   2
Atom  20O    basis set group =>   2
Atom  21C    basis set group =>   1
Atom  22S    basis set group =>   4
Atom  23S    basis set group =>   4
Atom  24H    basis set group =>   5
Atom  25H    basis set group =>   5
Atom  26H    basis set group =>   5
Atom  27H    basis set group =>   5
Atom  28H    basis set group =>   5
Atom  29H    basis set group =>   5
Atom  30H    basis set group =>   5
Atom  31H    basis set group =>   5
Atom  32H    basis set group =>   5
Atom  33H    basis set group =>   5


           ************************************************************
           *        Program running with 4 parallel MPI-processes     *
           *              working on a common directory               *
           ************************************************************
------------------------------------------------------------------------------
                           ORCA GTO INTEGRAL CALCULATION
                           -- RI-GTO INTEGRALS CHOSEN --
------------------------------------------------------------------------------
------------------------------------------------------------------------------
                   ___                                                        
                  /   \      - P O W E R E D   B Y -                         
                 /     \                                                     
                 |  |  |   _    _      __       _____    __    __             
                 |  |  |  | |  | |    /  \     |  _  \  |  |  /  |          
                  \  \/   | |  | |   /    \    | | | |  |  | /  /          
                 / \  \   | |__| |  /  /\  \   | |_| |  |  |/  /          
                |  |  |   |  __  | /  /__\  \  |    /   |      \           
                |  |  |   | |  | | |   __   |  |    \   |  |\   \          
                \     /   | |  | | |  |  |  |  | |\  \  |  | \   \       
                 \___/    |_|  |_| |__|  |__|  |_| \__\ |__|  \__/        
                                                                              
                      - O R C A' S   B I G   F R I E N D -                    
                                      &                                       
                       - I N T E G R A L  F E E D E R -                       
                                                                              
 v1 FN, 2020, v2 2021                                                         
------------------------------------------------------------------------------


Reading SHARK input file m062x-train-6.SHARKINP.tmp ... ok
----------------------
SHARK INTEGRAL PACKAGE
----------------------

Number of atoms                             ...     34
Number of basis functions                   ...   1434
Number of shells                            ...    562
Maximum angular momentum                    ...      3
Integral batch strategy                     ... SHARK/LIBINT Hybrid
RI-J (if used) integral strategy            ... SPLIT-RIJ (Revised 2003 algorithm where possible)
Printlevel                                  ...      1
Contraction scheme used                     ... PARTIAL GENERAL contraction
Coulomb Range Separation                    ... NOT USED
Exchange Range Separation                   ... NOT USED
Finite Nucleus Model                        ... NOT USED
Auxiliary Coulomb fitting basis             ... AVAILABLE
   # of basis functions in Aux-J            ...   2280
   # of shells in Aux-J                     ...    724
   Maximum angular momentum in Aux-J        ...      4
Auxiliary J/K fitting basis                 ... NOT available
Auxiliary Correlation fitting basis         ... AVAILABLE
   # of basis functions in Aux-C            ...   2926
   # of shells in Aux-C                     ...    790
   Maximum angular momentum in Aux-C        ...      4
Auxiliary 'external' fitting basis          ... NOT available
Integral threshold                          ...     2.500000e-11
Primitive cut-off                           ...     2.500000e-12
Primitive pair pre-selection threshold      ...     2.500000e-12

Calculating pre-screening integrals         ... done (  0.3 sec) Dimension = 562
Calculating pre-screening integrals (ORCA)  ... done (  0.8 sec) Dimension = 400
Organizing shell pair data                  ... done (  1.4 sec)
Shell pair information
Total number of shell pairs                 ...    158203
Shell pairs after pre-screening             ...     85650
Total number of primitive shell pairs       ...    196347
Primitive shell pairs kept                  ...     96907
          la=0 lb=0:  18561 shell pairs
          la=1 lb=0:  22526 shell pairs
          la=1 lb=1:   5894 shell pairs
          la=2 lb=0:  13907 shell pairs
          la=2 lb=1:   7229 shell pairs
          la=2 lb=2:   2287 shell pairs
          la=3 lb=0:   7717 shell pairs
          la=3 lb=1:   4172 shell pairs
          la=3 lb=2:   2591 shell pairs
          la=3 lb=3:    766 shell pairs

Calculating one electron integrals          ... done (  0.4 sec)
Calculating RI/J V-Matrix + Cholesky decomp.... done (  0.4 sec)
Calculating RI/C V-Matrix + Cholesky decomp.... done (  0.7 sec)
Calculating Nuclear repulsion               ... done (  0.0 sec) ENN=   2124.042008873448 Eh

SHARK setup successfully completed in   5.3 seconds

Maximum memory used throughout the entire GTOINT-calculation: 142.8 MB


           ************************************************************
           *        Program running with 4 parallel MPI-processes     *
           *              working on a common directory               *
           ************************************************************
-------------------------------------------------------------------------------
                                 ORCA SCF
-------------------------------------------------------------------------------

------------
SCF SETTINGS
------------
Hamiltonian:
 Density Functional     Method          .... DFT(GTOs)
 Exchange Functional    Exchange        .... M062X
 Correlation Functional Correlation     .... M062X
 Gradients option       PostSCFGGA      .... off
 Hybrid DFT is turned on
   Fraction HF Exchange ScalHFX         ....  0.540000
   Scaling of DF-GGA-X  ScalDFX         ....  0.460000
   Scaling of DF-GGA-C  ScalDFC         ....  1.000000
   Scaling of DF-LDA-C  ScalLDAC        ....  1.000000
   Perturbative correction              ....  0.000000
   Density functional embedding theory  .... OFF
 RI-approximation to the Coulomb term is turned on
   Number of AuxJ basis functions       .... 2280
   RIJ-COSX (HFX calculated with COS-X)).... on


General Settings:
 Integral files         IntName         .... m062x-train-6
 Hartree-Fock type      HFTyp           .... RHF
 Total Charge           Charge          ....    0
 Multiplicity           Mult            ....    1
 Number of Electrons    NEL             ....  184
 Basis Dimension        Dim             .... 1252
 Nuclear Repulsion      ENuc            ....   2124.0420088734 Eh

Convergence Acceleration:
 DIIS                   CNVDIIS         .... on
   Start iteration      DIISMaxIt       ....    12
   Startup error        DIISStart       ....  0.200000
   # of expansion vecs  DIISMaxEq       ....     5
   Bias factor          DIISBfac        ....   1.050
   Max. coefficient     DIISMaxC        ....  10.000
 Trust-Rad. Augm. Hess. CNVTRAH         .... auto
   Auto Start mean grad. ratio tolernc. ....  1.125000
   Auto Start start iteration           ....    20
   Auto Start num. interpolation iter.  ....    10
   Max. Number of Micro iterations      ....    16
   Max. Number of Macro iterations      .... Maxiter - #DIIS iter
   Number of Davidson start vectors     ....     2
   Converg. threshold I  (grad. norm)   ....   1.000e-05
   Converg. threshold II (energy diff.) ....   1.000e-08
   Grad. Scal. Fac. for Micro threshold ....   0.100
   Minimum threshold for Micro iter.    ....   0.010
   NR start threshold (gradient norm)   ....   0.001
   Initial trust radius                 ....   0.400
   Minimum AH scaling param. (alpha)    ....   1.000
   Maximum AH scaling param. (alpha)    .... 1000.000
   Orbital update algorithm             .... Taylor
   White noise on init. David. guess    .... on
   Maximum white noise                  ....   0.010
   Quad. conv. algorithm                .... NR
 SOSCF                  CNVSOSCF        .... on
   Start iteration      SOSCFMaxIt      ....   150
   Startup grad/error   SOSCFStart      ....  0.003300
 Level Shifting         CNVShift        .... on
   Level shift para.    LevelShift      ....    0.2500
   Turn off err/grad.   ShiftErr        ....    0.0010
 Zerner damping         CNVZerner       .... off
 Static damping         CNVDamp         .... on
   Fraction old density DampFac         ....    0.7000
   Max. Damping (<1)    DampMax         ....    0.9800
   Min. Damping (>=0)   DampMin         ....    0.0000
   Turn off err/grad.   DampErr         ....    0.1000
 Fernandez-Rico         CNVRico         .... off

SCF Procedure:
 Maximum # iterations   MaxIter         ....   125
 SCF integral mode      SCFMode         .... Direct
   Integral package                     .... SHARK and LIBINT hybrid scheme
 Reset frequency        DirectResetFreq ....    20
 Integral Threshold     Thresh          ....  2.500e-11 Eh
 Primitive CutOff       TCut            ....  2.500e-12 Eh

Convergence Tolerance:
 Convergence Check Mode ConvCheckMode   .... Total+1el-Energy
 Convergence forced     ConvForced      .... 0
 Energy Change          TolE            ....  1.000e-08 Eh
 1-El. energy change                    ....  1.000e-05 Eh
 Orbital Gradient       TolG            ....  1.000e-05
 Orbital Rotation angle TolX            ....  1.000e-05
 DIIS Error             TolErr          ....  5.000e-07


Diagonalization of the overlap matrix:
Smallest eigenvalue                        ... 3.061e-07
Time for diagonalization                   ...    0.497 sec
Threshold for overlap eigenvalues          ... 1.000e-08
Number of eigenvalues below threshold      ... 0
Time for construction of square roots      ...    0.321 sec
Total time needed                          ...    0.828 sec

Time for model grid setup =    1.292 sec

------------------------------
INITIAL GUESS: MODEL POTENTIAL
------------------------------
Loading Hartree-Fock densities                     ... done
Calculating cut-offs                               ... done
Initializing the effective Hamiltonian             ... done
Setting up the integral package (SHARK)            ... done
Starting the Coulomb interaction                   ... done (   4.8 sec)
Reading the grid                                   ... done
Mapping shells                                     ... done
Starting the XC term evaluation                    ... done (   2.9 sec)
  promolecular density results
     # of electrons  =    183.997693624
     EX              =   -180.262481498
     EC              =     -6.378318293
     EX+EC           =   -186.640799792
Transforming the Hamiltonian                       ... done (   0.2 sec)
Diagonalizing the Hamiltonian                      ... done (   0.6 sec)
Back transforming the eigenvectors                 ... done (   0.1 sec)
Now organizing SCF variables                       ... done
                      ------------------
                      INITIAL GUESS DONE (   9.9 sec)
                      ------------------
-------------------
DFT GRID GENERATION
-------------------

General Integration Accuracy     IntAcc      ... 4.959
Radial Grid Type                 RadialGrid  ... OptM3 with GC (2021)
Angular Grid (max. ang.)         AngularGrid ... 6 (Lebedev-590)
Angular grid pruning method      GridPruning ... 4 (adaptive)
Weight generation scheme         WeightScheme... Becke
Basis function cutoff            BFCut       ... 1.0000e-11
Integration weight cutoff        WCut        ... 1.0000e-14
Angular grids for H and He will be reduced by one unit
Partially contracted basis set               ... off
Rotationally invariant grid construction     ... off

Total number of grid points                  ...   445362
Total number of batches                      ...     6975
Average number of points per batch           ...       63
Average number of grid points per atom       ...    13099
Time for grid setup =   11.554 sec

--------------------
COSX GRID GENERATION
--------------------

GRIDX 1
-------
General Integration Accuracy     IntAcc      ... 4.020
Radial Grid Type                 RadialGrid  ... OptM3 with GC (2021)
Angular Grid (max. ang.)         AngularGrid ... 2 (Lebedev-110)
Angular grid pruning method      GridPruning ... 4 (adaptive)
Weight generation scheme         WeightScheme... Becke
Basis function cutoff            BFCut       ... 1.0000e-11
Integration weight cutoff        WCut        ... 1.0000e-14
Angular grids for H and He will be reduced by one unit
Partially contracted basis set               ... on
Rotationally invariant grid construction     ... off

Total number of grid points                  ...    57561
Total number of batches                      ...      919
Average number of points per batch           ...       62
Average number of grid points per atom       ...     1693
UseSFitting                                  ... on

GRIDX 2
-------
General Integration Accuracy     IntAcc      ... 4.338
Radial Grid Type                 RadialGrid  ... OptM3 with GC (2021)
Angular Grid (max. ang.)         AngularGrid ... 3 (Lebedev-194)
Angular grid pruning method      GridPruning ... 4 (adaptive)
Weight generation scheme         WeightScheme... Becke
Basis function cutoff            BFCut       ... 1.0000e-11
Integration weight cutoff        WCut        ... 1.0000e-14
Angular grids for H and He will be reduced by one unit
Partially contracted basis set               ... on
Rotationally invariant grid construction     ... off

Total number of grid points                  ...   125435
Total number of batches                      ...     1977
Average number of points per batch           ...       63
Average number of grid points per atom       ...     3689
UseSFitting                                  ... on

GRIDX 3
-------
General Integration Accuracy     IntAcc      ... 4.871
Radial Grid Type                 RadialGrid  ... OptM3 with GC (2021)
Angular Grid (max. ang.)         AngularGrid ... 4 (Lebedev-302)
Angular grid pruning method      GridPruning ... 4 (adaptive)
Weight generation scheme         WeightScheme... Becke
Basis function cutoff            BFCut       ... 1.0000e-11
Integration weight cutoff        WCut        ... 1.0000e-14
Angular grids for H and He will be reduced by one unit
Partially contracted basis set               ... on
Rotationally invariant grid construction     ... off

Total number of grid points                  ...   225596
Total number of batches                      ...     3542
Average number of points per batch           ...       63
Average number of grid points per atom       ...     6635
UseSFitting                                  ... on

Time for X-Grid setup             =   17.749 sec


--------------------
CPCM SOLVATION MODEL
--------------------
CPCM parameters:
  Epsilon                                         ...       2.3741
  Refrac                                          ...       1.4961
  Rsolv                                           ...       1.3000
  Surface type                                    ... GAUSSIAN VDW
  Epsilon function type                           ...         CPCM
Solvent:                                     ... TOLUENE
SMD-CDS solvent descriptors:
  Soln                                       ...    1.4961
  Soln25                                     ...    1.4936
  Sola                                       ...    0.0000
  Solb                                       ...    0.1400
  Solg                                       ...   40.2000
  Solc                                       ...    0.8570
  Solh                                       ...    0.0000
Radii:
 Radius for C  used is    3.4960 Bohr (=   1.8500 Ang.)
 Radius for O  used is    4.3350 Bohr (=   2.2940 Ang.)
 Radius for N  used is    3.5716 Bohr (=   1.8900 Ang.)
 Radius for S  used is    4.7054 Bohr (=   2.4900 Ang.)
 Radius for H  used is    2.2677 Bohr (=   1.2000 Ang.)
Calculating surface                               ...        done! (  0.0s)
GEPOL surface points                              ...         1779
GEPOL Volume                                      ...    2758.6728
GEPOL Surface-area                                ...    1373.4159
Calculating surface distance matrix               ...        done! (  0.1s)
Performing Cholesky decomposition & store         ...        done! (  0.2s)
Overall time for CPCM initialization              ...                 0.3s
 re-compute Schwartz prescreening matrix in partically contracted basis (1) ...done (   0.433 sec)
--------------
SCF ITERATIONS
--------------
ITER       Energy         Delta-E        Max-DP      RMS-DP      [F,P]     Damp
               ***  Starting incremental Fock matrix formation  ***
  0  -1821.8268211893   0.000000000000 0.18011834  0.00191642  0.3104309 0.7000
  1  -1822.1039561084  -0.277134919102 0.12684028  0.00153190  0.1397663 0.7000
                               ***Turning on DIIS***
  2  -1822.2246942694  -0.120738161052 0.29387163  0.00350090  0.0452322 0.0000
  3  -1822.4241873003  -0.199493030934 0.09756811  0.00090773  0.0680893 0.0000
  4  -1822.4590368688  -0.034849568449 0.05155304  0.00034072  0.0163965 0.0000
  5  -1822.4613925100  -0.002355641225 0.01824381  0.00017525  0.0051129 0.0000
                      *** Initiating the SOSCF procedure ***
                           *** Shutting down DIIS ***
                      *** Re-Reading the Fockian *** 
                      *** Removing any level shift *** 
ITER      Energy       Delta-E        Grad      Rot      Max-DP    RMS-DP
  6  -1822.46179102  -0.0003985101  0.002990  0.002990  0.027278  0.000220
               *** Restarting incremental Fock matrix formation ***
  7  -1822.46199818  -0.0002071612  0.000902  0.004201  0.026883  0.000257
  8  -1822.46201756  -0.0000193796  0.000364  0.002873  0.015593  0.000133
  9  -1822.46203387  -0.0000163108  0.000114  0.000684  0.019081  0.000161
 10  -1822.46203381   0.0000000593  0.000130  0.000363  0.009289  0.000066
 11  -1822.46203474  -0.0000009301  0.000018  0.000029  0.022148  0.000168
 12  -1822.46203473   0.0000000102  0.000016  0.000029  0.010757  0.000083
 13  -1822.46203486  -0.0000001258  0.000004  0.000009  0.023197  0.000160
 14  -1822.46203493  -0.0000000676  0.000003  0.000005  0.015823  0.000119
                  ***Gradient check signals convergence***
              ***Rediagonalizing the Fockian in SOSCF/NRSCF***

               *****************************************************
               *                     SUCCESS                       *
               *           SCF CONVERGED AFTER  15 CYCLES          *
               *****************************************************

Old exchange energy                            =    -98.646618492 Eh
New exchange energy                            =    -98.646613440 Eh
Exchange energy change after final integration =      0.000005052 Eh
Total energy after final integration           =  -1822.462029835 Eh
Final COS-X integration done in                =   396.340 sec

SMD CDS free energy correction energy :                -3.71137     Kcal/mol
Total Energy after SMD CDS correction =             -1822.467944280 Eh

----------------
TOTAL SCF ENERGY
----------------

Total Energy       :        -1822.46794428 Eh          -49591.87397 eV

Components:
Nuclear Repulsion  :         2124.04200887 Eh           57798.12146 eV
Electronic Energy  :        -3946.50995315 Eh         -107389.99543 eV
One Electron Energy:        -6716.05498573 Eh         -182753.14715 eV
Two Electron Energy:         2769.54503257 Eh           75363.15172 eV
Max COSX asymmetry :            0.00003220 Eh               0.00088 eV
CPCM Dielectric    :           -0.01937918 Eh              -0.52733 eV
SMD CDS (Gcds)     :           -0.00591444 Eh              -0.16094 eV

Virial components:
Potential Energy   :        -3638.05379788 Eh          -98996.47672 eV
Kinetic Energy     :         1815.58585360 Eh           49404.60276 eV
Virial Ratio       :            2.00379056


DFT components:
N(Alpha)           :       92.000013671302 electrons
N(Beta)            :       92.000013671302 electrons
N(Total)           :      184.000027342605 electrons
E(XC)              :      -91.136979963896 Eh       
DFET-embed. en.    :        0.000000000000 Eh       
CPCM Solvation Model Properties:
Surface-charge          :           -0.03566609
Charge-correction       :            0.00015671 Eh               0.00426 eV
Free-energy (cav+disp)  :           -0.00591444 Eh              -0.16094 eV

---------------
SCF CONVERGENCE
---------------

  Last Energy change         ...    3.8954e-08  Tolerance :   1.0000e-08
  Last MAX-Density change    ...    4.8850e-15  Tolerance :   1.0000e-07
  Last RMS-Density change    ...    2.1380e-17  Tolerance :   5.0000e-09
  Last Orbital Gradient      ...    1.8498e-06  Tolerance :   1.0000e-05
  Last Orbital Rotation      ...    4.1485e-06  Tolerance :   1.0000e-05

             **** THE GBW FILE WAS UPDATED (m062x-train-6.gbw) ****
             **** DENSITY m062x-train-6.scfp WAS UPDATED ****
             **** ENERGY FILE WAS UPDATED (m062x-train-6.en.tmp) ****
             **** THE GBW FILE WAS UPDATED (m062x-train-6.gbw) ****
             **** DENSITY m062x-train-6.scfp WAS UPDATED ****
----------------
ORBITAL ENERGIES
----------------

  NO   OCC          E(Eh)            E(eV) 
   0   2.0000     -89.988771     -2448.7189 
   1   2.0000     -89.986040     -2448.6446 
   2   2.0000     -19.691415      -535.8306 
   3   2.0000     -19.691161      -535.8237 
   4   2.0000     -19.636753      -534.3432 
   5   2.0000     -19.632180      -534.2188 
   6   2.0000     -14.762215      -401.7003 
   7   2.0000     -14.761692      -401.6861 
   8   2.0000     -10.699210      -291.1403 
   9   2.0000     -10.697617      -291.0970 
  10   2.0000     -10.640151      -289.5332 
  11   2.0000     -10.636696      -289.4392 
  12   2.0000     -10.622393      -289.0500 
  13   2.0000     -10.617726      -288.9230 
  14   2.0000     -10.607116      -288.6343 
  15   2.0000     -10.602452      -288.5074 
  16   2.0000     -10.598246      -288.3929 
  17   2.0000     -10.596542      -288.3466 
  18   2.0000     -10.593586      -288.2661 
  19   2.0000     -10.593324      -288.2590 
  20   2.0000     -10.592711      -288.2423 
  21   2.0000     -10.591361      -288.2056 
  22   2.0000     -10.588893      -288.1384 
  23   2.0000     -10.588025      -288.1148 
  24   2.0000      -8.324157      -226.5118 
  25   2.0000      -8.320743      -226.4189 
  26   2.0000      -6.243664      -169.8987 
  27   2.0000      -6.241332      -169.8353 
  28   2.0000      -6.240196      -169.8044 
  29   2.0000      -6.238779      -169.7658 
  30   2.0000      -6.237733      -169.7374 
  31   2.0000      -6.235319      -169.6717 
  32   2.0000      -1.261483       -34.3267 
  33   2.0000      -1.258864       -34.2554 
  34   2.0000      -1.167618       -31.7725 
  35   2.0000      -1.163851       -31.6700 
  36   2.0000      -1.046680       -28.4816 
  37   2.0000      -1.039129       -28.2761 
  38   2.0000      -1.031703       -28.0741 
  39   2.0000      -1.017467       -27.6867 
  40   2.0000      -0.953864       -25.9560 
  41   2.0000      -0.931478       -25.3468 
  42   2.0000      -0.886831       -24.1319 
  43   2.0000      -0.875608       -23.8265 
  44   2.0000      -0.858672       -23.3657 
  45   2.0000      -0.841824       -22.9072 
  46   2.0000      -0.824766       -22.4430 
  47   2.0000      -0.787184       -21.4204 
  48   2.0000      -0.726886       -19.7796 
  49   2.0000      -0.702290       -19.1103 
  50   2.0000      -0.690924       -18.8010 
  51   2.0000      -0.687871       -18.7179 
  52   2.0000      -0.673278       -18.3208 
  53   2.0000      -0.658357       -17.9148 
  54   2.0000      -0.638940       -17.3864 
  55   2.0000      -0.627538       -17.0762 
  56   2.0000      -0.619826       -16.8663 
  57   2.0000      -0.592478       -16.1221 
  58   2.0000      -0.590732       -16.0746 
  59   2.0000      -0.589888       -16.0517 
  60   2.0000      -0.575712       -15.6659 
  61   2.0000      -0.568151       -15.4602 
  62   2.0000      -0.543824       -14.7982 
  63   2.0000      -0.529968       -14.4212 
  64   2.0000      -0.524767       -14.2796 
  65   2.0000      -0.515083       -14.0161 
  66   2.0000      -0.510373       -13.8880 
  67   2.0000      -0.510354       -13.8875 
  68   2.0000      -0.497755       -13.5446 
  69   2.0000      -0.492215       -13.3939 
  70   2.0000      -0.485623       -13.2145 
  71   2.0000      -0.472433       -12.8555 
  72   2.0000      -0.472095       -12.8464 
  73   2.0000      -0.463274       -12.6063 
  74   2.0000      -0.457217       -12.4415 
  75   2.0000      -0.454499       -12.3675 
  76   2.0000      -0.453836       -12.3495 
  77   2.0000      -0.449576       -12.2336 
  78   2.0000      -0.445191       -12.1143 
  79   2.0000      -0.444168       -12.0864 
  80   2.0000      -0.424712       -11.5570 
  81   2.0000      -0.419953       -11.4275 
  82   2.0000      -0.411768       -11.2048 
  83   2.0000      -0.399712       -10.8767 
  84   2.0000      -0.396443       -10.7877 
  85   2.0000      -0.389033       -10.5861 
  86   2.0000      -0.381075       -10.3696 
  87   2.0000      -0.366507        -9.9732 
  88   2.0000      -0.356514        -9.7013 
  89   2.0000      -0.346285        -9.4229 
  90   2.0000      -0.332334        -9.0433 
  91   2.0000      -0.264799        -7.2055 
  92   0.0000      -0.124990        -3.4012 
  93   0.0000      -0.049716        -1.3528 
  94   0.0000      -0.006950        -0.1891 
  95   0.0000      -0.000796        -0.0217 
  96   0.0000       0.005148         0.1401 
  97   0.0000       0.005357         0.1458 
  98   0.0000       0.009252         0.2517 
  99   0.0000       0.017190         0.4678 
 100   0.0000       0.018464         0.5024 
 101   0.0000       0.020535         0.5588 
 102   0.0000       0.022257         0.6057 
 103   0.0000       0.027250         0.7415 
 104   0.0000       0.027439         0.7467 
 105   0.0000       0.032550         0.8857 
 106   0.0000       0.034784         0.9465 
 107   0.0000       0.038224         1.0401 
 108   0.0000       0.039709         1.0805 
 109   0.0000       0.042178         1.1477 
 110   0.0000       0.043554         1.1852 
 111   0.0000       0.044322         1.2061 
 112   0.0000       0.046049         1.2531 
 113   0.0000       0.047723         1.2986 
 114   0.0000       0.048592         1.3223 
 115   0.0000       0.051425         1.3993 
 116   0.0000       0.054474         1.4823 
 117   0.0000       0.058269         1.5856 
 118   0.0000       0.059190         1.6106 
 119   0.0000       0.061673         1.6782 
 120   0.0000       0.067309         1.8316 
 121   0.0000       0.069651         1.8953 
 122   0.0000       0.069835         1.9003 
 123   0.0000       0.072332         1.9682 
 124   0.0000       0.075875         2.0647 
 125   0.0000       0.077685         2.1139 
 126   0.0000       0.079322         2.1585 
 127   0.0000       0.081581         2.2199 
 128   0.0000       0.086251         2.3470 
 129   0.0000       0.089389         2.4324 
 130   0.0000       0.089630         2.4389 
 131   0.0000       0.093913         2.5555 
 132   0.0000       0.096028         2.6131 
 133   0.0000       0.099714         2.7134 
 134   0.0000       0.103186         2.8078 
 135   0.0000       0.105682         2.8758 
 136   0.0000       0.109705         2.9852 
 137   0.0000       0.112039         3.0487 
 138   0.0000       0.115089         3.1317 
 139   0.0000       0.115557         3.1445 
 140   0.0000       0.121471         3.3054 
 141   0.0000       0.124976         3.4008 
 142   0.0000       0.125128         3.4049 
 143   0.0000       0.125362         3.4113 
 144   0.0000       0.128788         3.5045 
 145   0.0000       0.130986         3.5643 
 146   0.0000       0.132850         3.6150 
 147   0.0000       0.138144         3.7591 
 148   0.0000       0.139122         3.7857 
 149   0.0000       0.140821         3.8319 
 150   0.0000       0.146160         3.9772 
 151   0.0000       0.146817         3.9951 
[...]
Average number of points per batch           ...       62
Average number of grid points per atom       ...      974

---------------
TD-DFT XC SETUP
---------------

DFT calculation                         ... on
Name of the grid file                   ... m062x-train-6_job2.grid_cis.tmp
Exchange functional (TD-DFT)            ... M062X
Correlation functional (TD-DFT)         ... M062X
Hybrid DFT                              ... on
   Exchange mixing (TD-DFT)             ...  0.540
   GGA exch. scaling (TD-DFT)           ...  0.460
   GGA corr. scaling (TD-DFT)           ...  1.000

Building densities             ... done
Calculating rho(r) on the grid ... done
Building xc-kernel on the grid ... done
                    *** TD-DFT CALCULATION INITIALIZED ***

---------------------------------
    LR-CPCM (non-equilibrium)
---------------------------------

Setting up LR-CPCM             ... done

------------------------
DAVIDSON-DIAGONALIZATION
------------------------

Dimension of the eigenvalue problem            ...  69600
Number of roots to be determined               ...     10
Maximum size of the expansion space            ...     70
Maximum number of iterations                   ...    100
Convergence tolerance for the residual         ...    1.000e-06
Convergence tolerance for the energies         ...    1.000e-06
Orthogonality tolerance                        ...    1.000e-14
Level Shift                                    ...    0.000e+00
Constructing the preconditioner                ... o.k.
Building the initial guess                     ... o.k.
Number of trial vectors determined             ...     70


                       ****Iteration    0****

   Memory handling for direct AO based CIS:
   Memory per vector needed      ...    71 MB
   Memory needed                 ...  2152 MB
   Memory available              ...  4000 MB
   Number of vectors per batch   ...    55
   Number of batches             ...     1
   Time for densities:            0.920
   Time for RI-J (Direct):       29.012
   Time for K (COSX):           410.591
   Time for XC-Integration:     314.044
   Time for LR-CPCM terms:       30.146
   Time for Sigma-Completion:     0.700
   Size of expansion space: 30
   Lowest Energy          :     0.112584507540
   Maximum Energy change  :     0.213365360032 (vector 9)
   Maximum residual norm  :     0.023681206010

                       ****Iteration    1****
   Time for densities:            0.303
   Time for RI-J (Direct):       19.056
   Time for K (COSX):           146.021
   Time for XC-Integration:     112.870
   Time for LR-CPCM terms:       14.240
   Time for Sigma-Completion:     0.226
   Size of expansion space: 40
   Lowest Energy          :     0.097687795421
   Maximum Energy change  :     0.025619732278 (vector 5)
   Maximum residual norm  :     0.000897688238

                       ****Iteration    2****
   Time for densities:            0.303
   Time for RI-J (Direct):       19.263
   Time for K (COSX):           146.834
   Time for XC-Integration:     114.693
   Time for LR-CPCM terms:       14.365
   Time for Sigma-Completion:     0.230
   Size of expansion space: 50
   Lowest Energy          :     0.097092923567
   Maximum Energy change  :     0.003527672248 (vector 6)
   Maximum residual norm  :     0.000224208641

                       ****Iteration    3****
   Time for densities:            0.306
   Time for RI-J (Direct):       19.431
   Time for K (COSX):           148.522
   Time for XC-Integration:     117.232
   Time for LR-CPCM terms:       14.338
   Time for Sigma-Completion:     0.232
   Size of expansion space: 60
   Lowest Energy          :     0.097022080181
   Maximum Energy change  :     0.000412658813 (vector 4)
   Maximum residual norm  :     0.000053467816

                       ****Iteration    4****
   Time for densities:            0.310
   Time for RI-J (Direct):       19.568
   Time for K (COSX):           147.046
   Time for XC-Integration:     119.683
   Time for LR-CPCM terms:       14.592
   Time for Sigma-Completion:     0.230
   Size of expansion space: 70
   Lowest Energy          :     0.097017762627
   Maximum Energy change  :     0.000086506094 (vector 8)
   Maximum residual norm  :     0.000009688499
   Rebuilding the expansion space

                       ****Iteration    5****
   Time for densities:            0.612
   Time for RI-J (Direct):       23.924
   Time for K (COSX):           284.977
   Time for XC-Integration:     225.287
   Time for LR-CPCM terms:       22.637
   Time for Sigma-Completion:     0.452
   Size of expansion space: 20
   Lowest Energy          :     0.097017508845
   Maximum Energy change  :     0.000020450634 (vector 9)
   Maximum residual norm  :     0.000004354563

                       ****Iteration    6****
   Time for densities:            0.314
   Time for RI-J (Direct):       19.438
   Time for K (COSX):           146.681
   Time for XC-Integration:     117.343
   Time for LR-CPCM terms:       14.382
   Time for Sigma-Completion:     0.235
   Size of expansion space: 30
   Lowest Energy          :     0.097017470706
   Maximum Energy change  :     0.000016600130 (vector 9)
   Maximum residual norm  :     0.000002787324

                       ****Iteration    7****
   Time for densities:            0.304
   Time for RI-J (Direct):       19.562
   Time for K (COSX):           149.488
   Time for XC-Integration:     120.623
   Time for LR-CPCM terms:       14.495
   Time for Sigma-Completion:     0.229
   Size of expansion space: 40
   Lowest Energy          :     0.097017468196
   Maximum Energy change  :     0.000024781185 (vector 9)
   Maximum residual norm  :     0.000009436722

                       ****Iteration    8****
   Time for densities:            0.313
   Time for RI-J (Direct):       19.389
   Time for K (COSX):           148.145
   Time for XC-Integration:     119.240
   Time for LR-CPCM terms:       14.402
   Time for Sigma-Completion:     0.228
   Size of expansion space: 50
   Lowest Energy          :     0.097017467887
   Maximum Energy change  :     0.000055330531 (vector 9)
   Maximum residual norm  :     0.000012033978

                       ****Iteration    9****
   Time for densities:            0.307
   Time for RI-J (Direct):       19.446
   Time for K (COSX):           147.205
   Time for XC-Integration:     120.398
   Time for LR-CPCM terms:       14.603
   Time for Sigma-Completion:     0.230
   Size of expansion space: 60
   Lowest Energy          :     0.097017467868
   Maximum Energy change  :     0.000046975977 (vector 9)
   Maximum residual norm  :     0.000007995250

                       ****Iteration   10****
   Time for densities:            0.310
   Time for RI-J (Direct):       19.892
   Time for K (COSX):           152.535
   Time for XC-Integration:     122.724
   Time for LR-CPCM terms:       14.563
   Time for Sigma-Completion:     0.228
   Size of expansion space: 70
   Lowest Energy          :     0.097017467867
   Maximum Energy change  :     0.000021315083 (vector 9)
   Maximum residual norm  :     0.000002857856
   Rebuilding the expansion space

                       ****Iteration   11****
   Time for densities:            0.619
   Time for RI-J (Direct):       23.569
   Time for K (COSX):           283.790
   Time for XC-Integration:     227.467
   Time for LR-CPCM terms:       22.920
   Time for Sigma-Completion:     0.455
   Size of expansion space: 20
   Lowest Energy          :     0.097017467855
   Maximum Energy change  :     0.000005924105 (vector 9)
   Maximum residual norm  :     0.000001006168

                       ****Iteration   12****
   Time for densities:            0.309
   Time for RI-J (Direct):       20.253
   Time for K (COSX):           154.280
   Time for XC-Integration:     139.106
   Time for LR-CPCM terms:       15.134
   Time for Sigma-Completion:     0.235
   Size of expansion space: 30
   Lowest Energy          :     0.097017467848
   Maximum Energy change  :     0.000002613865 (vector 9)
   Maximum residual norm  :     0.000000493686

      *** CONVERGENCE OF RESIDUAL NORM REACHED ***

Storing the converged CI vectors               ... m062x-train-6_job2.cis1

                 *** DAVIDSON DONE ***

Total time for solving the CIS problem:  4945.610sec

------------------------------------
TD-DFT/TDA EXCITED STATES (SINGLETS)
------------------------------------

the weight of the individual excitations are printed if larger than 1.0e-02

STATE  1:  E=   0.097017 au      2.640 eV    21292.9 cm**-1 <S**2> =   0.000000
    89a ->  92a  :     0.012317 (c=  0.11098319)
    91a ->  92a  :     0.955274 (c= -0.97738129)

STATE  2:  E=   0.146334 au      3.982 eV    32116.7 cm**-1 <S**2> =   0.000000
    88a ->  92a  :     0.215739 (c= -0.46447683)
    89a ->  92a  :     0.037078 (c= -0.19255759)
    89a ->  93a  :     0.018060 (c= -0.13438670)
    90a ->  92a  :     0.619692 (c=  0.78720536)
    91a ->  93a  :     0.085599 (c= -0.29257347)

STATE  3:  E=   0.149623 au      4.071 eV    32838.5 cm**-1 <S**2> =   0.000000
    88a ->  93a  :     0.017966 (c=  0.13403578)
    89a ->  92a  :     0.895870 (c=  0.94650396)
    90a ->  92a  :     0.014964 (c=  0.12232726)
    91a ->  92a  :     0.010864 (c=  0.10423152)
    91a ->  93a  :     0.036052 (c= -0.18987283)

STATE  4:  E=   0.151172 au      4.114 eV    33178.4 cm**-1 <S**2> =   0.000000
    88a ->  92a  :     0.163097 (c=  0.40385325)
    89a ->  92a  :     0.016689 (c= -0.12918754)
    90a ->  92a  :     0.012520 (c= -0.11189265)
    91a ->  93a  :     0.764521 (c= -0.87436875)

STATE  5:  E=   0.169414 au      4.610 eV    37182.0 cm**-1 <S**2> =   0.000000
    87a ->  92a  :     0.778390 (c=  0.88226418)
    87a ->  93a  :     0.098505 (c=  0.31385580)
    87a ->  96a  :     0.014534 (c=  0.12055909)
    87a -> 111a  :     0.017593 (c=  0.13263740)
    87a -> 113a  :     0.011450 (c=  0.10700574)

STATE  6:  E=   0.170093 au      4.628 eV    37331.1 cm**-1 <S**2> =   0.000000
    88a ->  92a  :     0.564034 (c=  0.75102204)
    90a ->  92a  :     0.302485 (c=  0.54998630)
    91a ->  93a  :     0.067693 (c=  0.26017875)

STATE  7:  E=   0.176293 au      4.797 eV    38691.8 cm**-1 <S**2> =   0.000000
    86a ->  92a  :     0.689175 (c= -0.83016591)
    86a ->  93a  :     0.140090 (c=  0.37428664)
    86a ->  96a  :     0.028821 (c= -0.16976659)
    86a -> 113a  :     0.041881 (c= -0.20464745)
    86a -> 114a  :     0.040541 (c=  0.20134764)
    87a ->  93a  :     0.012615 (c= -0.11231857)

STATE  8:  E=   0.195123 au      5.310 eV    42824.6 cm**-1 <S**2> =   0.000000
    90a -> 103a  :     0.019106 (c= -0.13822388)
    91a ->  94a  :     0.524545 (c=  0.72425509)
    91a ->  97a  :     0.016434 (c=  0.12819372)
    91a ->  98a  :     0.050578 (c=  0.22489551)
    91a ->  99a  :     0.016410 (c= -0.12810023)
    91a -> 103a  :     0.056356 (c=  0.23739344)
    91a -> 105a  :     0.149685 (c= -0.38689209)
    91a -> 108a  :     0.058935 (c=  0.24276510)

STATE  9:  E=   0.196088 au      5.336 eV    43036.3 cm**-1 <S**2> =   0.000000
    85a ->  92a  :     0.030287 (c= -0.17403110)
    90a ->  93a  :     0.097270 (c=  0.31188071)
    91a ->  96a  :     0.802809 (c=  0.89599618)
    91a -> 104a  :     0.015307 (c=  0.12372238)

STATE 10:  E=   0.201204 au      5.475 eV    44159.3 cm**-1 <S**2> =   0.000000
    82a ->  92a  :     0.019943 (c=  0.14121981)
    90a -> 103a  :     0.018763 (c=  0.13697639)
    91a ->  94a  :     0.226607 (c=  0.47603217)
    91a ->  95a  :     0.019759 (c= -0.14056797)
    91a ->  97a  :     0.076389 (c=  0.27638563)
    91a ->  99a  :     0.168709 (c=  0.41074191)
    91a -> 101a  :     0.067237 (c=  0.25930013)
    91a -> 103a  :     0.120565 (c= -0.34722477)
    91a -> 105a  :     0.041703 (c=  0.20421428)
    91a -> 106a  :     0.037269 (c=  0.19305112)
    91a -> 108a  :     0.046649 (c= -0.21598346)
    91a -> 110a  :     0.022756 (c= -0.15084949)


-----------------------------
TD-DFT/TDA-EXCITATION SPECTRA
-----------------------------

Center of mass = ( -0.2726, -0.1137,  0.0565)
Calculating the Dipole integrals                  ... done
Transforming integrals                            ... done
Calculating the Linear Momentum integrals         ... done
Transforming integrals                            ... done
Calculating angular momentum integrals            ... done
Transforming integrals                            ... done

-----------------------------------------------------------------------------
         ABSORPTION SPECTRUM VIA TRANSITION ELECTRIC DIPOLE MOMENTS
-----------------------------------------------------------------------------
State   Energy    Wavelength  fosc         T2        TX        TY        TZ  
        (cm-1)      (nm)                 (au**2)    (au)      (au)      (au) 
-----------------------------------------------------------------------------
   1   21292.9    469.6   2.088581981  32.29184   5.57142   0.32600   1.06998
   2   32116.7    311.4   0.011874631   0.12172   0.34323   0.01642   0.06035
   3   32838.5    304.5   0.280344649   2.81051  -1.65640  -0.01788  -0.25791
   4   33178.4    301.4   0.004674362   0.04638   0.21280  -0.02599   0.02052
   5   37182.0    268.9   0.000299121   0.00265  -0.02611  -0.03266   0.03000
   6   37331.1    267.9   0.001642762   0.01449   0.10157   0.04720   0.04407
   7   38691.8    258.5   0.000147486   0.00125  -0.00695  -0.02338   0.02569
   8   42824.6    233.5   0.007001565   0.05382  -0.03655  -0.13883   0.18225
   9   43036.3    232.4   0.117112230   0.89587  -0.93876   0.05842  -0.10573
  10   44159.3    226.5   0.006636077   0.04947  -0.03834  -0.13143   0.17530

-----------------------------------------------------------------------------
         ABSORPTION SPECTRUM VIA TRANSITION VELOCITY DIPOLE MOMENTS
-----------------------------------------------------------------------------
State   Energy    Wavelength   fosc        P2         PX        PY        PZ  
        (cm-1)      (nm)                 (au**2)     (au)      (au)      (au) 
-----------------------------------------------------------------------------
   1   21292.9    469.6   0.703087119   0.10232  -0.31627   0.04674  -0.01042
   2   32116.7    311.4   0.002697344   0.00059  -0.02330  -0.00375  -0.00592
   3   32838.5    304.5   0.083994410   0.01885   0.13481   0.00697   0.02511
   4   33178.4    301.4   0.004484839   0.00102  -0.03145   0.00034  -0.00527
   5   37182.0    268.9   0.000970896   0.00025  -0.00111  -0.01001   0.01206
   6   37331.1    267.9   0.000307359   0.00008   0.00199   0.00488   0.00712
   7   38691.8    258.5   0.000442263   0.00012  -0.00088  -0.00648   0.00861
   8   42824.6    233.5   0.009544143   0.00279   0.00744   0.03109  -0.04209
   9   43036.3    232.4   0.078009870   0.02295   0.14600  -0.03973  -0.00715
  10   44159.3    226.5   0.004631763   0.00140   0.00634   0.02217  -0.02943

-------------------------------------------------------------------
                             CD SPECTRUM
-------------------------------------------------------------------
State  Energy     Wavelength     R         MX        MY        MZ   
       (cm-1)       (nm)     (1e40*cgs)   (au)      (au)      (au)  
-------------------------------------------------------------------
   1   21292.9    469.6      1.92193  -0.00274  -0.02687   0.02625
   2   32116.7    311.4      0.16778   0.02466   0.12660  -0.16879
   3   32838.5    304.5      1.29233   0.00836   0.05339  -0.06804
   4   33178.4    301.4     -0.87715   0.03229   0.16522  -0.21630
   5   37182.0    268.9     -2.86786   0.01287   0.25083   0.08149
   6   37331.1    267.9     -1.57491  -0.10440  -0.51393   0.71522
   7   38691.8    258.5      0.27345  -0.24769  -0.03052  -0.07222
   8   42824.6    233.5      0.07938   0.00639   0.06904   0.05480
   9   43036.3    232.4     -0.07842  -0.00213  -0.00837   0.01587
  10   44159.3    226.5     -0.39296  -0.01333  -0.15081  -0.12074

-------------------------------------------------------------------
         CD SPECTRUM VIA TRANSITION VELOCITY DIPOLE MOMENTS        
-------------------------------------------------------------------
State  Energy     Wavelength     R         MX        MY        MZ   
       (cm-1)       (nm)     (1e40*cgs)   (au)      (au)      (au)  
-------------------------------------------------------------------
   1   21292.9    469.6     -3.22576  -0.00274  -0.02687   0.02625
   2   32116.7    311.4     -0.16007   0.02466   0.12660  -0.16879
   3   32838.5    304.5     -0.65852   0.00836   0.05339  -0.06804
   4   33178.4    301.4      0.56763   0.03229   0.16522  -0.21630
   5   37182.0    268.9     -4.28964   0.01287   0.25083   0.08149
   6   37331.1    267.9      6.57833  -0.10440  -0.51393   0.71522
   7   38691.8    258.5     -0.54906  -0.24769  -0.03052  -0.07222
   8   42824.6    233.5     -0.27149   0.00639   0.06904   0.05480
   9   43036.3    232.4     -0.22108  -0.00213  -0.00837   0.01587
  10   44159.3    226.5      0.29167  -0.01333  -0.15081  -0.12074

Total run time:     4960.828 sec

           *** ORCA-CIS/TD-DFT FINISHED WITHOUT ERROR ***

Maximum memory used throughout the entire CIS-calculation: 1967.7 MB

-----------------------
CIS/TD-DFT TOTAL ENERGY
-----------------------

    E(SCF)  =  -1822.475742973 Eh
    DE(CIS) =      0.097017468 Eh (Root  1)
    ----------------------------- ---------
    E(tot)  =  -1822.378725505 Eh


-------------------------   --------------------
FINAL SINGLE POINT ENERGY     -1822.378725505059
-------------------------   --------------------


                            ***************************************
                            *     ORCA property calculations      *
                            ***************************************

                                    ---------------------
                                    Active property flags
                                    ---------------------
   (+) Dipole Moment


------------------------------------------------------------------------------
                       ORCA ELECTRIC PROPERTIES CALCULATION
------------------------------------------------------------------------------

Dipole Moment Calculation                       ... on
Quadrupole Moment Calculation                   ... off
Polarizability Calculation                      ... off
GBWName                                         ... m062x-train-6_job2.gbw
Electron density                                ... m062x-train-6_job2.scfp
The origin for moment calculation is the CENTER OF MASS  = (-0.272551, -0.113689  0.056528)

-------------
DIPOLE MOMENT
-------------
                                X             Y             Z
Electronic contribution:     -3.31182      -1.36824      -1.60380
Nuclear contribution   :      4.63621       1.95092       2.23966
                        -----------------------------------------
Total Dipole Moment    :      1.32439       0.58268       0.63586
                        -----------------------------------------
Magnitude (a.u.)       :      1.58045
Magnitude (Debye)      :      4.01720



--------------------
Rotational spectrum 
--------------------
 
Rotational constants in cm-1:     0.020019     0.002512     0.002234 
Rotational constants in MHz :   600.168032    75.319517    66.978295 

 Dipole components along the rotational axes: 
x,y,z [a.u.] :    -1.311206     0.882359    -0.004093 
x,y,z [Debye]:    -3.332822     2.242779    -0.010402 

 

Timings for individual modules:

Sum of individual times         ...     6382.433 sec (= 106.374 min)
GTO integral calculation        ...        6.004 sec (=   0.100 min)   0.1 %
SCF iterations                  ...     1415.013 sec (=  23.584 min)  22.2 %
CIS module                      ...     4961.416 sec (=  82.690 min)  77.7 %



                             ****ORCA TERMINATED NORMALLY****
TOTAL RUN TIME: 0 days 12 hours 11 minutes 18 seconds 720 msec
