
                                 *****************
                                 * O   R   C   A *
                                 *****************

                                            #,                                       
                                            ###                                      
                                            ####                                     
                                            #####                                    
                                            ######                                   
                                           ########,                                 
                                     ,,################,,,,,                         
                               ,,#################################,,                 
                          ,,##########################################,,             
                       ,#########################################, ''#####,          
                    ,#############################################,,   '####,        
                  ,##################################################,,,,####,       
                ,###########''''           ''''###############################       
              ,#####''   ,,,,##########,,,,          '''####'''          '####       
            ,##' ,,,,###########################,,,                        '##       
           ' ,,###''''                  '''############,,,                           
         ,,##''                                '''############,,,,        ,,,,,,###''
      ,#''                                            '''#######################'''  
     '                                                          ''''####''''         
             ,#######,   #######,   ,#######,      ##                                
            ,#'     '#,  ##    ##  ,#'     '#,    #''#        ######   ,####,        
            ##       ##  ##   ,#'  ##            #'  '#       #        #'  '#        
            ##       ##  #######   ##           ,######,      #####,   #    #        
            '#,     ,#'  ##    ##  '#,     ,#' ,#      #,         ##   #,  ,#        
             '#######'   ##     ##  '#######'  #'      '#     #####' # '####'        



                  #######################################################
                  #                        -***-                        #
                  #          Department of theory and spectroscopy      #
                  #    Directorship and core code : Frank Neese         #
                  #        Max Planck Institute fuer Kohlenforschung    #
                  #                Kaiser Wilhelm Platz 1               #
                  #                 D-45470 Muelheim/Ruhr               #
                  #                      Germany                        #
                  #                                                     #
                  #                  All rights reserved                #
                  #                        -***-                        #
                  #######################################################


                         Program Version 5.0.2 -  RELEASE  -


 With contributions from (in alphabetic order):
   Daniel Aravena         : Magnetic Suceptibility
   Michael Atanasov       : Ab Initio Ligand Field Theory (pilot matlab implementation)
   Alexander A. Auer      : GIAO ZORA, VPT2 properties, NMR spectrum
   Ute Becker             : Parallelization
   Giovanni Bistoni       : ED, misc. LED, open-shell LED, HFLD
   Martin Brehm           : Molecular dynamics
   Dmytro Bykov           : SCF Hessian
   Vijay G. Chilkuri      : MRCI spin determinant printing, contributions to CSF-ICE
   Dipayan Datta          : RHF DLPNO-CCSD density
   Achintya Kumar Dutta   : EOM-CC, STEOM-CC
   Dmitry Ganyushin       : Spin-Orbit,Spin-Spin,Magnetic field MRCI
   Miquel Garcia          : C-PCM and meta-GGA Hessian, CC/C-PCM, Gaussian charge scheme
   Yang Guo               : DLPNO-NEVPT2, F12-NEVPT2, CIM, IAO-localization
   Andreas Hansen         : Spin unrestricted coupled pair/coupled cluster methods
   Benjamin Helmich-Paris : MC-RPA, TRAH-SCF, COSX integrals
   Lee Huntington         : MR-EOM, pCC
   Robert Izsak           : Overlap fitted RIJCOSX, COSX-SCS-MP3, EOM
   Marcus Kettner         : VPT2
   Christian Kollmar      : KDIIS, OOCD, Brueckner-CCSD(T), CCSD density, CASPT2, CASPT2-K
   Simone Kossmann        : Meta GGA functionals, TD-DFT gradient, OOMP2, MP2 Hessian
   Martin Krupicka        : Initial AUTO-CI
   Lucas Lang             : DCDCAS
   Marvin Lechner         : AUTO-CI (C++ implementation), FIC-MRCC
   Dagmar Lenk            : GEPOL surface, SMD
   Dimitrios Liakos       : Extrapolation schemes; Compound Job, initial MDCI parallelization
   Dimitrios Manganas     : Further ROCIS development; embedding schemes
   Dimitrios Pantazis     : SARC Basis sets
   Anastasios Papadopoulos: AUTO-CI, single reference methods and gradients
   Taras Petrenko         : DFT Hessian,TD-DFT gradient, ASA, ECA, R-Raman, ABS, FL, XAS/XES, NRVS
   Peter Pinski           : DLPNO-MP2, DLPNO-MP2 Gradient
   Christoph Reimann      : Effective Core Potentials
   Marius Retegan         : Local ZFS, SOC
   Christoph Riplinger    : Optimizer, TS searches, QM/MM, DLPNO-CCSD(T), (RO)-DLPNO pert. Triples
   Tobias Risthaus        : Range-separated hybrids, TD-DFT gradient, RPA, STAB
   Michael Roemelt        : Original ROCIS implementation
   Masaaki Saitow         : Open-shell DLPNO-CCSD energy and density
   Barbara Sandhoefer     : DKH picture change effects
   Avijit Sen             : IP-ROCIS
   Kantharuban Sivalingam : CASSCF convergence, NEVPT2, FIC-MRCI
   Bernardo de Souza      : ESD, SOC TD-DFT
   Georgi Stoychev        : AutoAux, RI-MP2 NMR, DLPNO-MP2 response
   Willem Van den Heuvel  : Paramagnetic NMR
   Boris Wezisla          : Elementary symmetry handling
   Frank Wennmohs         : Technical directorship


 We gratefully acknowledge several colleagues who have allowed us to
 interface, adapt or use parts of their codes:
   Stefan Grimme, W. Hujo, H. Kruse, P. Pracht,  : VdW corrections, initial TS optimization,
                  C. Bannwarth, S. Ehlert          DFT functionals, gCP, sTDA/sTD-DF
   Ed Valeev, F. Pavosevic, A. Kumar             : LibInt (2-el integral package), F12 methods
   Garnet Chan, S. Sharma, J. Yang, R. Olivares  : DMRG
   Ulf Ekstrom                                   : XCFun DFT Library
   Mihaly Kallay                                 : mrcc  (arbitrary order and MRCC methods)
   Jiri Pittner, Ondrej Demel                    : Mk-CCSD
   Frank Weinhold                                : gennbo (NPA and NBO analysis)
   Christopher J. Cramer and Donald G. Truhlar   : smd solvation model
   Lars Goerigk                                  : TD-DFT with DH, B97 family of functionals
   V. Asgeirsson, H. Jonsson                     : NEB implementation
   FAccTs GmbH                                   : IRC, NEB, NEB-TS, DLPNO-Multilevel, CI-OPT
                                                   MM, QMMM, 2- and 3-layer-ONIOM, Crystal-QMMM,
                                                   LR-CPCM, SF, NACMEs, symmetry and pop. for TD-DFT,
                                                   nearIR, NL-DFT gradient (VV10), updates on ESD,
                                                   ML-optimized integration grids
   S Lehtola, MJT Oliveira, MAL Marques          : LibXC Library
   Liviu Ungur et al                             : ANISO software


 Your calculation uses the libint2 library for the computation of 2-el integrals
 For citations please refer to: http://libint.valeyev.net

 Your ORCA version has been built with support for libXC version: 5.1.0
 For citations please refer to: https://tddft.org/programs/libxc/

 This ORCA versions uses:
   CBLAS   interface :  Fast vector & matrix operations
   LAPACKE interface :  Fast linear algebra routines
   SCALAPACK package :  Parallel linear algebra routines
   Shared memory     :  Shared parallel matrices
   BLAS/LAPACK       :  OpenBLAS 0.3.15  USE64BITINT DYNAMIC_ARCH NO_AFFINITY Haswell SINGLE_THREADED
        Core in use  :  Haswell
   Copyright (c) 2011-2014, The OpenBLAS Project


Your calculation utilizes the atom-pairwise dispersion correction
with the Becke-Johnson damping scheme (D3BJ)
Cite in your paper:
S.Grimme, S.Ehrlich, L.Goerigk, J Comput Chem, (2011), 32, 1456–1465 
S.Grimme, J.Antony, S.Ehrlich and H.Krieg, J.Chem.Phys., 132, (2010), 154104 
   

Your calculation utilizes the SMD solvation module
Please cite in your paper:
A.V. Marenich, C.J. Cramer, D.G. Truhlar J. Phys. Chem. B, 113, (2009), 6378 

================================================================================

----- Orbital basis set information -----
Your calculation utilizes the basis: aug-cc-pVTZ 
    H, B-Ne : Obtained from the ccRepo (grant-hill.group.shef.ac.uk/ccrepo) Feb. 2017
              R. A. Kendall, T. H. Dunning, Jr., R. J. Harrison, J. Chem. Phys. 96, 6796 (1992)
         He : Obtained from the ccRepo (grant-hill.group.shef.ac.uk/ccrepo) Feb. 2017
              D. E. Woon, T. H. Dunning, Jr., J. Chem. Phys. 100, 2975 (1994)
  Li-Be, Na : Obtained from the ccRepo (grant-hill.group.shef.ac.uk/ccrepo) Feb. 2017
              B. P. Prascher, D. E. Woon, K. A. Peterson, T. H. Dunning, Jr., A. K. Wilson, Theor. Chem. Acc. 128, 69 (2011)
         Mg : Obtained from the Peterson Research Group Website (tyr0.chem.wsu.edu/~kipeters) Feb. 2017
              B. P. Prascher, D. E. Woon, K. A. Peterson, T. H. Dunning, Jr., A. K. Wilson, Theor. Chem. Acc. 128, 69 (2011)
      Al-Ar : Obtained from the ccRepo (grant-hill.group.shef.ac.uk/ccrepo) Feb. 2017
              D. E. Woon, T. H. Dunning, Jr., J. Chem. Phys. 98, 1358 (1993)
      Sc-Zn : Obtained from the ccRepo (grant-hill.group.shef.ac.uk/ccrepo) Feb. 2017
              N. B. Balabanov, K. A. Peterson, J. Chem. Phys. 123, 064107 (2005)
              N. B. Balabanov, K. A. Peterson, J. Chem. Phys. 125, 074110 (2006)
      Ga-Kr : Obtained from the ccRepo (grant-hill.group.shef.ac.uk/ccrepo) Feb. 2017
              A. K. Wilson, D. E. Woon, K. A. Peterson, T. H. Dunning, Jr., J. Chem. Phys. 110, 7667 (1999)
     Ag, Au : Obtained from the Peterson Research Group Website (tyr0.chem.wsu.edu/~kipeters) Feb. 2017
              K. A. Peterson, C. Puzzarini, Theor. Chem. Acc. 114, 283 (2005)

The basis set includes element-specific modifications.

Your calculation utilizes the basis: cc-pVTZ 
       H, B-Ne : Obtained from the ccRepo (grant-hill.group.shef.ac.uk/ccrepo) Feb. 2017
                 T. H. Dunning, Jr., J. Chem. Phys. 90, 1007 (1989)
            He : Obtained from the ccRepo (grant-hill.group.shef.ac.uk/ccrepo) Feb. 2017
                 D. E. Woon, T. H. Dunning, Jr., J. Chem. Phys. 100, 2975 (1994)
  Li-Be, Na-Mg : Obtained from the ccRepo (grant-hill.group.shef.ac.uk/ccrepo) Feb. 2017
                 B. P. Prascher, D. E. Woon, K. A. Peterson, T. H. Dunning, Jr., A. K. Wilson, Theor. Chem. Acc. 128, 69 (2011)
         Al-Ar : Obtained from the ccRepo (grant-hill.group.shef.ac.uk/ccrepo) Feb. 2017
                 D. E. Woon, T. H. Dunning, Jr., J. Chem. Phys. 98, 1358 (1993)
            Ca : Obtained from the Peterson Research Group Website (tyr0.chem.wsu.edu/~kipeters) Feb. 2017
                 J. Koput, K. A. Peterson, J. Phys. Chem. 106, 9595 (2002)
         Sc-Zn : Obtained from the ccRepo (grant-hill.group.shef.ac.uk/ccrepo) Feb. 2017
                 N. B. Balabanov, K. A. Peterson, J. Chem. Phys. 123, 064107 (2005)
                 N. B. Balabanov, K. A. Peterson, J. Chem. Phys. 125, 074110 (2006)
         Ga-Kr : Obtained from the ccRepo (grant-hill.group.shef.ac.uk/ccrepo) Feb. 2017
                 A. K. Wilson, D. E. Woon, K. A. Peterson, T. H. Dunning, Jr., J. Chem. Phys. 110, 7667 (1999)
             Y : Obtained from the ccRepo (grant-hill.group.shef.ac.uk/ccrepo) Feb. 2017
                 K. A. Peterson, D. Figgen, M. Dolg, H. Stoll, J. Chem. Phys. 126, 124101 (2007)
        Ag, Au : Obtained from the Peterson Research Group Website (tyr0.chem.wsu.edu/~kipeters) Feb. 2017
                 K. A. Peterson, C. Puzzarini, Theor. Chem. Acc. 114, 283 (2005)

----- AuxJ basis set information -----
Your calculation utilizes the auxiliary basis: aug-cc-pVTZ/JK 
  H, B-F, Al-Cl, Ga-Br : Obtained from the TURBOMOLE 7.0 basis set library

The basis set includes element-specific modifications.

Your calculation utilizes the auxiliary basis: cc-pVTZ/JK 
  H, B-F, Al-Cl, Ga-Br : Obtained from the TURBOMOLE 7.0 basis set library

----- AuxC basis set information -----
Your calculation utilizes the auxiliary basis: aug-cc-pVTZ/C 
  H-He, B-F, Al-Ar, Ga-Kr : Obtained from the EMSL Basis Set Exchange (bse.pnl.gov) Feb. 2017
                            F. Weigend, A. Kohn, C. Hattig, J. Chem. Phys. 116, 3175 (2002)
                   Be, Mg : Obtained from the TURBOMOLE 7.0 basis set library
                            C. Haettig, Phys. Chem. Chem. Phys. 7, 59 (2005)
                       Ne : Obtained from the EMSL Basis Set Exchange (bse.pnl.gov) Feb. 2017
                            C. Haettig, Phys. Chem. Chem. Phys. 7, 59 (2005)
                            F. Weigend, A. Kohn, C. Hattig, J. Chem. Phys. 116, 3175 (2002)
                    Sc-Zn : Obtained from the EMSL Basis Set Exchange (bse.pnl.gov) Feb. 2017
                            J. G. Hill, J. A. Platts, J. Chem. Phys. 128, 044104 (2008)

The basis set includes element-specific modifications.

Your calculation utilizes the auxiliary basis: cc-pVTZ/C 
  Obtained from the EMSL Basis Set Exchange (bse.pnl.gov) Feb. 2017
  H-He, B-F, Al-Ar, Ga-Kr : F. Weigend, A. Kohn, C. Hattig, J. Chem. Phys. 116, 3175 (2002)
             Li-Be, Na-Mg : C. Haettig, Phys. Chem. Chem. Phys. 7, 59 (2005)
                       Ne : C. Haettig, Phys. Chem. Chem. Phys. 7, 59 (2005)
                            F. Weigend, A. Kohn, C. Hattig, J. Chem. Phys. 116, 3175 (2002)
                    Sc-Zn : J. G. Hill, J. A. Platts, J. Chem. Phys. 128, 044104 (2008)

================================================================================
                                        WARNINGS
                       Please study these warnings very carefully!
================================================================================


WARNING: Geometry Optimization
  ===> : Switching off AutoStart
         For restart on a previous wavefunction, please use MOREAD

INFO   : the flag for use of the SHARK integral package has been found!



***************************************
The coordinates will be read from file: 
***************************************


Your calculation utilizes the atom-pairwise dispersion correction
with the Becke-Johnson damping scheme (D3BJ)
Cite in your paper:
S.Grimme, S.Ehrlich, L.Goerigk, J Comput Chem, (2011), 32, 1456–1465 
S.Grimme, J.Antony, S.Ehrlich and H.Krieg, J.Chem.Phys., 132, (2010), 154104 
   

Your calculation utilizes the SMD solvation module
Please cite in your paper:
A.V. Marenich, C.J. Cramer, D.G. Truhlar J. Phys. Chem. B, 113, (2009), 6378 

================================================================================

----- Orbital basis set information -----
Your calculation utilizes the basis: aug-cc-pVTZ 
    H, B-Ne : Obtained from the ccRepo (grant-hill.group.shef.ac.uk/ccrepo) Feb. 2017
              R. A. Kendall, T. H. Dunning, Jr., R. J. Harrison, J. Chem. Phys. 96, 6796 (1992)
         He : Obtained from the ccRepo (grant-hill.group.shef.ac.uk/ccrepo) Feb. 2017
              D. E. Woon, T. H. Dunning, Jr., J. Chem. Phys. 100, 2975 (1994)
  Li-Be, Na : Obtained from the ccRepo (grant-hill.group.shef.ac.uk/ccrepo) Feb. 2017
              B. P. Prascher, D. E. Woon, K. A. Peterson, T. H. Dunning, Jr., A. K. Wilson, Theor. Chem. Acc. 128, 69 (2011)
         Mg : Obtained from the Peterson Research Group Website (tyr0.chem.wsu.edu/~kipeters) Feb. 2017
              B. P. Prascher, D. E. Woon, K. A. Peterson, T. H. Dunning, Jr., A. K. Wilson, Theor. Chem. Acc. 128, 69 (2011)
      Al-Ar : Obtained from the ccRepo (grant-hill.group.shef.ac.uk/ccrepo) Feb. 2017
              D. E. Woon, T. H. Dunning, Jr., J. Chem. Phys. 98, 1358 (1993)
      Sc-Zn : Obtained from the ccRepo (grant-hill.group.shef.ac.uk/ccrepo) Feb. 2017
              N. B. Balabanov, K. A. Peterson, J. Chem. Phys. 123, 064107 (2005)
              N. B. Balabanov, K. A. Peterson, J. Chem. Phys. 125, 074110 (2006)
      Ga-Kr : Obtained from the ccRepo (grant-hill.group.shef.ac.uk/ccrepo) Feb. 2017
              A. K. Wilson, D. E. Woon, K. A. Peterson, T. H. Dunning, Jr., J. Chem. Phys. 110, 7667 (1999)
     Ag, Au : Obtained from the Peterson Research Group Website (tyr0.chem.wsu.edu/~kipeters) Feb. 2017
              K. A. Peterson, C. Puzzarini, Theor. Chem. Acc. 114, 283 (2005)

The basis set includes element-specific modifications.

Your calculation utilizes the basis: cc-pVTZ 
       H, B-Ne : Obtained from the ccRepo (grant-hill.group.shef.ac.uk/ccrepo) Feb. 2017
                 T. H. Dunning, Jr., J. Chem. Phys. 90, 1007 (1989)
            He : Obtained from the ccRepo (grant-hill.group.shef.ac.uk/ccrepo) Feb. 2017
                 D. E. Woon, T. H. Dunning, Jr., J. Chem. Phys. 100, 2975 (1994)
  Li-Be, Na-Mg : Obtained from the ccRepo (grant-hill.group.shef.ac.uk/ccrepo) Feb. 2017
                 B. P. Prascher, D. E. Woon, K. A. Peterson, T. H. Dunning, Jr., A. K. Wilson, Theor. Chem. Acc. 128, 69 (2011)
         Al-Ar : Obtained from the ccRepo (grant-hill.group.shef.ac.uk/ccrepo) Feb. 2017
                 D. E. Woon, T. H. Dunning, Jr., J. Chem. Phys. 98, 1358 (1993)
            Ca : Obtained from the Peterson Research Group Website (tyr0.chem.wsu.edu/~kipeters) Feb. 2017
                 J. Koput, K. A. Peterson, J. Phys. Chem. 106, 9595 (2002)
         Sc-Zn : Obtained from the ccRepo (grant-hill.group.shef.ac.uk/ccrepo) Feb. 2017
                 N. B. Balabanov, K. A. Peterson, J. Chem. Phys. 123, 064107 (2005)
                 N. B. Balabanov, K. A. Peterson, J. Chem. Phys. 125, 074110 (2006)
         Ga-Kr : Obtained from the ccRepo (grant-hill.group.shef.ac.uk/ccrepo) Feb. 2017
                 A. K. Wilson, D. E. Woon, K. A. Peterson, T. H. Dunning, Jr., J. Chem. Phys. 110, 7667 (1999)
             Y : Obtained from the ccRepo (grant-hill.group.shef.ac.uk/ccrepo) Feb. 2017
                 K. A. Peterson, D. Figgen, M. Dolg, H. Stoll, J. Chem. Phys. 126, 124101 (2007)
        Ag, Au : Obtained from the Peterson Research Group Website (tyr0.chem.wsu.edu/~kipeters) Feb. 2017
                 K. A. Peterson, C. Puzzarini, Theor. Chem. Acc. 114, 283 (2005)

----- AuxJ basis set information -----
Your calculation utilizes the auxiliary basis: aug-cc-pVTZ/JK 
  H, B-F, Al-Cl, Ga-Br : Obtained from the TURBOMOLE 7.0 basis set library

The basis set includes element-specific modifications.

Your calculation utilizes the auxiliary basis: cc-pVTZ/JK 
  H, B-F, Al-Cl, Ga-Br : Obtained from the TURBOMOLE 7.0 basis set library

----- AuxC basis set information -----
Your calculation utilizes the auxiliary basis: aug-cc-pVTZ/C 
  H-He, B-F, Al-Ar, Ga-Kr : Obtained from the EMSL Basis Set Exchange (bse.pnl.gov) Feb. 2017
                            F. Weigend, A. Kohn, C. Hattig, J. Chem. Phys. 116, 3175 (2002)
                   Be, Mg : Obtained from the TURBOMOLE 7.0 basis set library
                            C. Haettig, Phys. Chem. Chem. Phys. 7, 59 (2005)
                       Ne : Obtained from the EMSL Basis Set Exchange (bse.pnl.gov) Feb. 2017
                            C. Haettig, Phys. Chem. Chem. Phys. 7, 59 (2005)
                            F. Weigend, A. Kohn, C. Hattig, J. Chem. Phys. 116, 3175 (2002)
                    Sc-Zn : Obtained from the EMSL Basis Set Exchange (bse.pnl.gov) Feb. 2017
                            J. G. Hill, J. A. Platts, J. Chem. Phys. 128, 044104 (2008)

The basis set includes element-specific modifications.

Your calculation utilizes the auxiliary basis: cc-pVTZ/C 
  Obtained from the EMSL Basis Set Exchange (bse.pnl.gov) Feb. 2017
  H-He, B-F, Al-Ar, Ga-Kr : F. Weigend, A. Kohn, C. Hattig, J. Chem. Phys. 116, 3175 (2002)
             Li-Be, Na-Mg : C. Haettig, Phys. Chem. Chem. Phys. 7, 59 (2005)
                       Ne : C. Haettig, Phys. Chem. Chem. Phys. 7, 59 (2005)
                            F. Weigend, A. Kohn, C. Hattig, J. Chem. Phys. 116, 3175 (2002)
                    Sc-Zn : J. G. Hill, J. A. Platts, J. Chem. Phys. 128, 044104 (2008)

================================================================================
                                        WARNINGS
                       Please study these warnings very carefully!
================================================================================

INFO   : Checking CIS options ...
  ===> : (D) CORRECTION FOUND - SETTING MODE=3
  ===> : JK MODE FOUND - ACTIVATING RI-MP2 CODE
  ===> : MP2 AND CIS FOUND - CHECKING
WARNING: CIS(D) and MP2 runs must have the same orbital window
  ===> : adjusting orbital windows

WARNING: No MP2 level density has been requested!
         To caclulate MP2 level properties use
         %mp2 Density relaxed end
         or
         %mp2 Density unrelaxed end
         Otherwise for double-hybrid DFT only the energy is correct!

WARNING: The frozen-core approximation is turned on by default for 
         the MP2 part of double-hybrid DFT.

WARNING:  You are using a Range-Separated Double Hybrid functional with Doubles Correction 
          Changing Mode to AOINTS 


INFO   : the flag for use of the SHARK integral package has been found!

================================================================================
                                       INPUT FILE
================================================================================
NAME = optpbed3-wb2plyp-train-6.inp
|  1> ! pbe0 d3bj aug-cc-PVTZ RIJCOSX Opt
|  2> %maxcore 4000
|  3> %basis
|  4>  AuxJ "aug-cc-PVTZ/JK"
|  5>  AuxC "aug-cc-PVTZ/C"
|  6>  newGTO H "cc-PVTZ" end
|  7>  newAuxJGTO H "cc-PVTZ/JK" end
|  8>  newAuxCGTO H "cc-PVTZ/C" end
|  9> end
| 10> %cpcm
| 11>  SMD true
| 12>  SMDsolvent "toluene"
| 13> end
| 14> %pal nprocs 4 end
| 15> * xyz 0 1
| 16> C         -5.31150        2.61790        1.32570
| 17> O         -4.65010        1.57880        0.62110
| 18> C         -5.43770        0.76910       -0.11470
| 19> O         -6.63310        0.89650       -0.19020
| 20> C         -4.64760       -0.26950       -0.79620
| 21> C         -5.35990       -1.18080       -1.59740
| 22> N         -5.92160       -1.93440       -2.25580
| 23> C         -3.28260       -0.38980       -0.68930
| 24> C         -2.48560       -1.38640       -1.33270
| 25> C         -1.16260       -1.28720       -1.06210
| 26> C         -0.83540       -0.21040       -0.19360
| 27> C          0.41760        0.12990        0.25070
| 28> C          0.74620        1.20760        1.11690
| 29> C          2.07100        1.29910        1.38500
| 30> C          2.84920        0.29380        0.74020
| 31> C          4.21240        0.11950        0.81350
| 32> C          5.03340        0.96040        1.57580
| 33> N          5.69720        1.65530        2.20440
| 34> C          4.78920       -0.99170        0.05580
| 35> O          4.09660       -1.73700       -0.61280
| 36> O          6.10900       -1.09560        0.17300
| 37> C          6.71900       -2.15840       -0.54510
| 38> S          1.86150       -0.76880       -0.21460
| 39> S         -2.28500        0.67120        0.26550
| 40> H         -6.03230        2.19710        2.02970
| 41> H         -4.53570        3.16730        1.85220
| 42> H         -5.84090        3.26980        0.62790
| 43> H         -2.93840       -2.12910       -1.96550
| 44> H         -0.39970       -1.94040       -1.44770
| 45> H         -0.01040        1.86800        1.50330
| 46> H          2.53440        2.03820        2.01450
| 47> H          7.78330       -2.08840       -0.33750
| 48> H          6.32330       -3.11920       -0.20950
| 49> H          6.52710       -2.05250       -1.61490
| 50> *
| 51> 
| 52> 
| 53> $new_job
| 54> ! wb2plyp aug-cc-PVTZ RIJCOSX SP
| 55> %maxcore 4000
| 56> %basis
| 57>  AuxJ "aug-cc-PVTZ/JK"
| 58>  AuxC "aug-cc-PVTZ/C"
| 59>  newGTO H "cc-PVTZ" end
| 60>  newAuxJGTO H "cc-PVTZ/JK" end
| 61>  newAuxCGTO H "cc-PVTZ/C" end
| 62> end
| 63> %cpcm
| 64>  SMD true
| 65>  SMDsolvent "toluene"
| 66> end
| 67> %pal nprocs 4 end
| 68> %tddft
| 69>  nroots 10
| 70>  maxdim 7
| 71> end
| 72> * xyzfile 0 1
| 73> 
| 74>                          ****END OF INPUT****
================================================================================


                 $$$$$$$$$$$$$$$$$$$$$$$$$$$$$$$$$$$$$$$$$$$$$$ 
                 $ THERE ARE  2 JOBS TO BE PROCESSED THIS RUN $
                 $$$$$$$$$$$$$$$$$$$$$$$$$$$$$$$$$$$$$$$$$$$$$$ 




                 $$$$$$$$$$$$$$$$  JOB NUMBER  1 $$$$$$$$$$$$$$


                       *****************************
                       * Geometry Optimization Run *
                       *****************************

Geometry optimization settings:
Update method            Update   .... BFGS
Choice of coordinates    CoordSys .... Z-matrix Internals
Initial Hessian          InHess   .... Almoef's Model

Convergence Tolerances:
Energy Change            TolE     ....  5.0000e-06 Eh
Max. Gradient            TolMAXG  ....  3.0000e-04 Eh/bohr
RMS Gradient             TolRMSG  ....  1.0000e-04 Eh/bohr
Max. Displacement        TolMAXD  ....  4.0000e-03 bohr
RMS Displacement         TolRMSD  ....  2.0000e-03 bohr
Strict Convergence                ....  False
------------------------------------------------------------------------------
                        ORCA OPTIMIZATION COORDINATE SETUP
------------------------------------------------------------------------------

The optimization will be done in new redundant internal coordinates
Making redundant internal coordinates   ...  (new redundants) done
Evaluating the initial hessian          ...  (Almloef) done
Evaluating the coordinates              ...  done
Calculating the B-matrix                .... done
Calculating the G-matrix                .... done
Diagonalizing the G-matrix              .... done
Small eigenvalue found = 1.655e-03
Small eigenvalue found = 3.776e-03
Small eigenvalue found = 6.630e-03
Small eigenvalue found = 1.828e-02
Small eigenvalue found = 2.075e-02
The first mode is                       ....   57
The number of degrees of freedom        ....   96

    -----------------------------------------------------------------
                    Redundant Internal Coordinates


    -----------------------------------------------------------------
         Definition                    Initial Value    Approx d2E/dq
    -----------------------------------------------------------------
      1. B(O   1,C   0)                  1.4190         0.502995   
      2. B(C   2,O   1)                  1.3481         0.652755   
      3. B(O   3,C   2)                  1.2045         1.106033   
      4. B(C   4,C   2)                  1.4722         0.461939   
      5. B(C   5,C   4)                  1.4070         0.586885   
      6. B(N   6,C   5)                  1.1476         1.363520   
      7. B(C   7,C   4)                  1.3745         0.661516   
      8. B(C   8,C   7)                  1.4291         0.541159   
      9. B(C   9,C   8)                  1.3540         0.713064   
     10. B(C  10,C   9)                  1.4216         0.556387   
     11. B(C  11,C  10)                  1.3723         0.666765   
     12. B(C  12,C  11)                  1.4212         0.557202   
     13. B(C  13,C  12)                  1.3547         0.711180   
     14. B(C  14,C  13)                  1.4255         0.548446   
     15. B(C  15,C  14)                  1.3763         0.657164   
     16. B(C  16,C  15)                  1.4008         0.600481   
     17. B(N  17,C  16)                  1.1483         1.359721   
     18. B(C  18,C  15)                  1.4634         0.477106   
     19. B(O  19,C  18)                  1.2175         1.054782   
     20. B(O  20,C  18)                  1.3291         0.700003   
     21. B(C  21,O  20)                  1.4203         0.500611   
     22. B(S  22,C  14)                  1.7368         0.471284   
     23. B(S  22,C  11)                  1.7632         0.427589   
     24. B(S  23,C  10)                  1.7576         0.436461   
     25. B(S  23,C   7)                  1.7414         0.463261   
     26. B(H  24,C   0)                  1.0919         0.357598   
     27. B(H  25,C   0)                  1.0867         0.364497   
     28. B(H  26,C   0)                  1.0919         0.357645   
     29. B(H  27,C   8)                  1.0757         0.379564   
     30. B(H  28,C   9)                  1.0758         0.379365   
     31. B(H  29,C  12)                  1.0760         0.379040   
     32. B(H  30,C  13)                  1.0758         0.379427   
     33. B(H  31,C  21)                  1.0866         0.364606   
     34. B(H  32,C  21)                  1.0919         0.357537   
     35. B(H  33,C  21)                  1.0920         0.357435   
     36. A(O   1,C   0,H  25)          106.1428         0.339323   
     37. A(O   1,C   0,H  26)          110.2341         0.338250   
     38. A(O   1,C   0,H  24)          110.2199         0.338243   
     39. A(H  24,C   0,H  25)          110.7159         0.291076   
     40. A(H  25,C   0,H  26)          110.7279         0.291082   
     41. A(H  24,C   0,H  26)          108.7885         0.290209   
     42. A(C   0,O   1,C   2)          116.0098         0.416513   
     43. A(O   1,C   2,C   4)          111.2749         0.412927   
     44. A(O   3,C   2,C   4)          125.3245         0.453991   
     45. A(O   1,C   2,O   3)          123.4006         0.480455   
     46. A(C   2,C   4,C   5)          116.6679         0.407845   
     47. A(C   5,C   4,C   7)          119.3641         0.434842   
     48. A(C   2,C   4,C   7)          123.9680         0.416601   
     49. L(C   4,C   5,N   6,C   2, 1) 181.1187         0.493005   
     50. L(C   4,C   5,N   6,C   2, 2) 180.0151         0.493005   
     51. A(C   8,C   7,S  23)          110.6244         0.424238   
     52. A(C   4,C   7,C   8)          125.4414         0.428550   
     53. A(C   4,C   7,S  23)          123.9342         0.439827   
     54. A(C   7,C   8,C   9)          113.8186         0.434366   
     55. A(C   7,C   8,H  27)          120.7693         0.347976   
     56. A(C   9,C   8,H  27)          125.4120         0.364661   
     57. A(C  10,C   9,H  28)          121.0424         0.349577   
     58. A(C   8,C   9,C  10)          113.7336         0.436542   
     59. A(C   8,C   9,H  28)          125.2239         0.364628   
     60. A(C   9,C  10,C  11)          126.5694         0.431302   
     61. A(C  11,C  10,S  23)          122.9626         0.435747   
     62. A(C   9,C  10,S  23)          110.4680         0.421830   
     63. A(C  10,C  11,C  12)          126.6193         0.431415   
     64. A(C  10,C  11,S  22)          122.4030         0.434139   
     65. A(C  12,C  11,S  22)          110.9776         0.420397   
     66. A(C  11,C  12,C  13)          113.4496         0.436450   
     67. A(C  13,C  12,H  29)          125.1046         0.364410   
     68. A(C  11,C  12,H  29)          121.4458         0.349613   
     69. A(C  14,C  13,H  30)          120.9345         0.348740   
     70. A(C  12,C  13,H  30)          125.6931         0.364474   
     71. A(C  12,C  13,C  14)          113.3724         0.435206   
     72. A(C  15,C  14,S  22)          121.0045         0.440667   
     73. A(C  13,C  14,S  22)          111.6969         0.426564   
     74. A(C  13,C  14,C  15)          127.2987         0.429072   
     75. A(C  16,C  15,C  18)          120.4358         0.411854   
     76. A(C  14,C  15,C  18)          117.3226         0.418513   
     77. A(C  14,C  15,C  16)          122.2416         0.436120   
     78. L(C  15,C  16,N  17,C  18, 2) 180.0676         0.494848   
     79. L(C  15,C  16,N  17,C  18, 1) 180.5672         0.494848   
     80. A(O  19,C  18,O  20)          124.4369         0.482448   
     81. A(C  15,C  18,O  20)          113.8976         0.420506   
     82. A(C  15,C  18,O  19)          121.6654         0.452742   
     83. A(C  18,O  20,C  21)          116.1295         0.421377   
     84. A(H  32,C  21,H  33)          108.8284         0.290175   
     85. A(O  20,C  21,H  33)          110.3201         0.337949   
     86. A(H  31,C  21,H  32)          110.6650         0.291081   
     87. A(O  20,C  21,H  32)          110.3276         0.337965   
     88. A(O  20,C  21,H  31)          106.0134         0.339071   
     89. A(H  31,C  21,H  33)          110.6732         0.291068   
     90. A(C  11,S  22,C  14)           90.5035         0.430470   
     91. A(C   7,S  23,C  10)           91.3553         0.430731   
     92. D(C   2,O   1,C   0,H  25)   -179.6820         0.020010   
     93. D(C   2,O   1,C   0,H  24)     60.3809         0.020010   
     94. D(C   2,O   1,C   0,H  26)    -59.7229         0.020010   
     95. D(C   4,C   2,O   1,C   0)   -179.8596         0.031512   
     96. D(O   3,C   2,O   1,C   0)      0.0977         0.031512   
     97. D(C   5,C   4,C   2,O   3)     -0.0122         0.014535   
     98. D(C   7,C   4,C   2,O   3)   -179.9447         0.014535   
     99. D(C   5,C   4,C   2,O   1)    179.9441         0.014535   
    100. D(C   7,C   4,C   2,O   1)      0.0116         0.014535   
    101. D(S  23,C   7,C   4,C   2)     -0.1488         0.030546   
    102. D(C   8,C   7,C   4,C   5)     -0.1197         0.030546   
    103. D(S  23,C   7,C   4,C   5)    179.9204         0.030546   
    104. D(C   8,C   7,C   4,C   2)    179.8111         0.030546   
    105. D(C   9,C   8,C   7,S  23)      0.0582         0.020013   
    106. D(C   9,C   8,C   7,C   4)   -179.9062         0.020013   
    107. D(H  27,C   8,C   7,S  23)   -179.9841         0.020013   
    108. D(H  27,C   8,C   7,C   4)      0.0515         0.020013   
    109. D(H  28,C   9,C   8,H  27)      0.0099         0.035925   
    110. D(H  28,C   9,C   8,C   7)    179.9653         0.035925   
    111. D(C  10,C   9,C   8,H  27)    179.9851         0.035925   
    112. D(C  10,C   9,C   8,C   7)     -0.0596         0.035925   
    113. D(S  23,C  10,C   9,H  28)   -179.9899         0.021195   
    114. D(S  23,C  10,C   9,C   8)      0.0337         0.021195   
    115. D(C  11,C  10,C   9,H  28)     -0.0384         0.021195   
    116. D(C  11,C  10,C   9,C   8)    179.9853         0.021195   
    117. D(S  22,C  11,C  10,S  23)    179.7664         0.031069   
    118. D(S  22,C  11,C  10,C   9)     -0.1795         0.031069   
    119. D(C  12,C  11,C  10,S  23)     -0.1808         0.031069   
    120. D(C  12,C  11,C  10,C   9)    179.8733         0.031069   
    121. D(C  13,C  12,C  11,S  22)     -0.0190         0.021259   
    122. D(C  13,C  12,C  11,C  10)    179.9333         0.021259   
    123. D(H  29,C  12,C  11,S  22)    179.9472         0.021259   
    124. D(H  29,C  12,C  11,C  10)     -0.1006         0.021259   
    125. D(H  30,C  13,C  12,H  29)      0.0217         0.035719   
    126. D(H  30,C  13,C  12,C  11)    179.9865         0.035719   
    127. D(C  14,C  13,C  12,H  29)   -179.9814         0.035719   
    128. D(C  14,C  13,C  12,C  11)     -0.0167         0.035719   
    129. D(S  22,C  14,C  13,H  30)   -179.9574         0.020573   
    130. D(S  22,C  14,C  13,C  12)      0.0456         0.020573   
    131. D(C  15,C  14,C  13,H  30)      0.0300         0.020573   
    132. D(C  15,C  14,C  13,C  12)   -179.9670         0.020573   
    133. D(C  18,C  15,C  14,S  22)      0.0655         0.030116   
    134. D(C  18,C  15,C  14,C  13)   -179.9208         0.030116   
    135. D(C  16,C  15,C  14,S  22)   -179.9704         0.030116   
    136. D(C  16,C  15,C  14,C  13)      0.0433         0.030116   
    137. D(O  20,C  18,C  15,C  16)     -0.0791         0.015498   
    138. D(O  20,C  18,C  15,C  14)    179.8856         0.015498   
    139. D(O  19,C  18,C  15,C  16)    179.9227         0.015498   
    140. D(O  19,C  18,C  15,C  14)     -0.1126         0.015498   
    141. D(C  21,O  20,C  18,O  19)      0.0716         0.036695   
    142. D(C  21,O  20,C  18,C  15)   -179.9265         0.036695   
    143. D(H  33,C  21,O  20,C  18)     59.9651         0.019814   
    144. D(H  32,C  21,O  20,C  18)    -60.3128         0.019814   
    145. D(H  31,C  21,O  20,C  18)    179.8289         0.019814   
    146. D(C  11,S  22,C  14,C  15)    179.9651         0.004773   
    147. D(C  11,S  22,C  14,C  13)     -0.0466         0.004773   
    148. D(C  14,S  22,C  11,C  12)      0.0375         0.004172   
    149. D(C  14,S  22,C  11,C  10)   -179.9171         0.004172   
    150. D(C   7,S  23,C  10,C  11)   -179.9533         0.004288   
    151. D(C   7,S  23,C  10,C   9)      0.0003         0.004288   
    152. D(C  10,S  23,C   7,C   8)     -0.0317         0.004658   
    153. D(C  10,S  23,C   7,C   4)    179.9334         0.004658   
    -----------------------------------------------------------------

Number of atoms                         .... 34
Number of degrees of freedom            .... 153

         *************************************************************
         *                GEOMETRY OPTIMIZATION CYCLE   1            *
         *************************************************************
---------------------------------
CARTESIAN COORDINATES (ANGSTROEM)
---------------------------------
  C     -5.311500    2.617900    1.325700
  O     -4.650100    1.578800    0.621100
  C     -5.437700    0.769100   -0.114700
  O     -6.633100    0.896500   -0.190200
  C     -4.647600   -0.269500   -0.796200
  C     -5.359900   -1.180800   -1.597400
  N     -5.921600   -1.934400   -2.255800
  C     -3.282600   -0.389800   -0.689300
  C     -2.485600   -1.386400   -1.332700
  C     -1.162600   -1.287200   -1.062100
  C     -0.835400   -0.210400   -0.193600
  C      0.417600    0.129900    0.250700
  C      0.746200    1.207600    1.116900
  C      2.071000    1.299100    1.385000
  C      2.849200    0.293800    0.740200
  C      4.212400    0.119500    0.813500
  C      5.033400    0.960400    1.575800
  N      5.697200    1.655300    2.204400
  C      4.789200   -0.991700    0.055800
  O      4.096600   -1.737000   -0.612800
  O      6.109000   -1.095600    0.173000
  C      6.719000   -2.158400   -0.545100
  S      1.861500   -0.768800   -0.214600
  S     -2.285000    0.671200    0.265500
  H     -6.032300    2.197100    2.029700
  H     -4.535700    3.167300    1.852200
  H     -5.840900    3.269800    0.627900
  H     -2.938400   -2.129100   -1.965500
  H     -0.399700   -1.940400   -1.447700
  H     -0.010400    1.868000    1.503300
  H      2.534400    2.038200    2.014500
  H      7.783300   -2.088400   -0.337500
  H      6.323300   -3.119200   -0.209500
  H      6.527100   -2.052500   -1.614900

----------------------------
CARTESIAN COORDINATES (A.U.)
----------------------------
  NO LB      ZA    FRAG     MASS         X           Y           Z
   0 C     6.0000    0    12.011  -10.037280    4.947114    2.505210
   1 O     8.0000    0    15.999   -8.787415    2.983500    1.173709
   2 C     6.0000    0    12.011  -10.275764    1.453388   -0.216752
   3 O     8.0000    0    15.999  -12.534742    1.694139   -0.359426
   4 C     6.0000    0    12.011   -8.782691   -0.509281   -1.504600
   5 C     6.0000    0    12.011  -10.128743   -2.231389   -3.018649
   6 N     7.0000    0    14.007  -11.190202   -3.655486   -4.262844
   7 C     6.0000    0    12.011   -6.203215   -0.736615   -1.302588
   8 C     6.0000    0    12.011   -4.697103   -2.619916   -2.518438
   9 C     6.0000    0    12.011   -2.196996   -2.432455   -2.007078
  10 C     6.0000    0    12.011   -1.578677   -0.397598   -0.365851
  11 C     6.0000    0    12.011    0.789150    0.245475    0.473754
  12 C     6.0000    0    12.011    1.410114    2.282033    2.110635
  13 C     6.0000    0    12.011    3.913623    2.454943    2.617271
  14 C     6.0000    0    12.011    5.384208    0.555202    1.398775
  15 C     6.0000    0    12.011    7.960282    0.225822    1.537292
  16 C     6.0000    0    12.011    9.511748    1.814893    2.977830
  17 N     7.0000    0    14.007   10.766148    3.128064    4.165712
  18 C     6.0000    0    12.011    9.050276   -1.874041    0.105447
  19 O     8.0000    0    15.999    7.741452   -3.282454   -1.158024
  20 O     8.0000    0    15.999   11.544337   -2.070384    0.326923
  21 C     6.0000    0    12.011   12.697070   -4.078785   -1.030090
  22 S    16.0000    0    32.060    3.517725   -1.452821   -0.405535
  23 S    16.0000    0    32.060   -4.318024    1.268384    0.501722
  24 H     1.0000    0     1.008  -11.399395    4.151917    3.835577
  25 H     1.0000    0     1.008   -8.571231    5.985330    3.500151
  26 H     1.0000    0     1.008  -11.037701    6.179027    1.186559
  27 H     1.0000    0     1.008   -5.552771   -4.023416   -3.714257
  28 H     1.0000    0     1.008   -0.755324   -3.666825   -2.735757
  29 H     1.0000    0     1.008   -0.019653    3.530008    2.840825
  30 H     1.0000    0     1.008    4.789322    3.851640    3.806853
  31 H     1.0000    0     1.008   14.708305   -3.946504   -0.637783
  32 H     1.0000    0     1.008   11.949305   -5.894434   -0.395898
  33 H     1.0000    0     1.008   12.334431   -3.878663   -3.051719

--------------------------------
INTERNAL COORDINATES (ANGSTROEM)
--------------------------------
 C      0   0   0     0.000000000000     0.00000000     0.00000000
 O      1   0   0     1.419027811567     0.00000000     0.00000000
 C      2   1   0     1.348083636129   116.00983956     0.00000000
 O      3   2   1     1.204538156307   123.40057175     0.09770678
 C      3   2   1     1.472205902719   111.27491516   180.14041460
 C      5   3   2     1.407039594326   116.66789833   179.94407210
 N      6   5   3     1.147567170147   178.88128524   180.40353640
 C      5   3   2     1.374454328088   123.96797581     0.00000000
 C      8   5   3     1.429120050940   125.44143313   179.81106810
 C      9   8   5     1.354028803239   113.81864005   180.09380971
 C     10   9   8     1.421566153930   113.73363373   359.94044803
 C     11  10   9     1.372303020473   126.56942426   179.98527685
 C     12  11  10     1.421167720573   126.61934751   179.87330763
 C     13  12  11     1.354749017346   113.44955798   179.93327545
 C     14  13  12     1.425478996688   113.37235999     0.00000000
 C     15  14  13     1.376251292461   127.29866565   180.03295495
 C     16  15  14     1.400805161327   122.24159761     0.04327516
 N     17  16  15     1.148326787112   179.43179271     3.43914765
 C     16  15  14     1.463411415153   117.32261351   180.07921738
 O     19  16  15     1.217453411840   121.66542487   359.88743277
 O     19  16  15     1.329060980542   113.89763110   179.88563077
 C     21  19  16     1.420320896840   116.12945843   180.07346017
 S     15  14  13     1.736753606589   111.69687385     0.04558049
 S      8   5   3     1.741427517871   123.93415051   359.85119078
 H      1   2   3     1.091898017216   110.21992254    60.38090407
 H      1   2   3     1.086696024655   106.14276601   180.31796191
 H      1   2   3     1.091862083782   110.23410837   300.27711547
 H      9   8   5     1.075670474634   120.76930895     0.05147593
 H     10   9   8     1.075813185456   125.22394084   179.96527464
 H     13  12  11     1.076046783370   121.44582420   359.89943251
 H     14  13  12     1.075768850637   125.69311770   179.98645600
 H     22  21  19     1.086615042230   106.01339089   179.82894333
 H     22  21  19     1.091944362136   110.32759206   299.68718242
 H     22  21  19     1.092022188419   110.32005145    59.96505232

---------------------------
INTERNAL COORDINATES (A.U.)
---------------------------
 C      0   0   0     0.000000000000     0.00000000     0.00000000
 O      1   0   0     2.681573940279     0.00000000     0.00000000
 C      2   1   0     2.547508877905   116.00983956     0.00000000
 O      3   2   1     2.276247233279   123.40057175     0.09770678
 C      3   2   1     2.782065968881   111.27491516   180.14041460
 C      5   3   2     2.658919492859   116.66789833   179.94407210
 N      6   5   3     2.168587671858   178.88128524   180.40353640
 C      5   3   2     2.597342263669   123.96797581     0.00000000
 C      8   5   3     2.700645508773   125.44143313   179.81106810
 C      9   8   5     2.558743615562   113.81864005   180.09380971
 C     10   9   8     2.686370712180   113.73363373   359.94044803
 C     11  10   9     2.593276881447   126.56942426   179.98527685
 C     12  11  10     2.685617782253   126.61934751   179.87330763
 C     13  12  11     2.560104622983   113.44955798   179.93327545
 C     14  13  12     2.693764913398   113.37235999     0.00000000
 C     15  14  13     2.600738034206   127.29866565   180.03295495
 C     16  15  14     2.647138121891   122.24159761     0.04327516
 N     17  16  15     2.170023139888   179.43179271     3.43914765
 C     16  15  14     2.765446795893   117.32261351   180.07921738
 O     19  16  15     2.300653529185   121.66542487   359.88743277
 O     19  16  15     2.511561268506   113.89763110   179.88563077
 C     21  19  16     2.684017517313   116.12945843   180.07346017
 S     15  14  13     3.281988678553   111.69687385     0.04558049
 S      8   5   3     3.290821090851   123.93415051   359.85119078
 H      1   2   3     2.063388218710   110.21992254    60.38090407
 H      1   2   3     2.053557877418   106.14276601   180.31796191
 H      1   2   3     2.063320314360   110.23410837   300.27711547
 H      9   8   5     2.032722607404   120.76930895     0.05147593
 H     10   9   8     2.032992291772   125.22394084   179.96527464
 H     13  12  11     2.033433727855   121.44582420   359.89943251
 H     14  13  12     2.032908511106   125.69311770   179.98645600
 H     22  21  19     2.053404842814   106.01339089   179.82894333
 H     22  21  19     2.063475797916   110.32759206   299.68718242
 H     22  21  19     2.063622868278   110.32005145    59.96505232

---------------------
BASIS SET INFORMATION
---------------------
There are 5 groups of distinct atoms

 Group   1 Type C   : 19s6p3d2f contracted to 5s4p3d2f pattern {88111/3111/111/11}
 Group   2 Type O   : 19s6p3d2f contracted to 5s4p3d2f pattern {88111/3111/111/11}
 Group   3 Type N   : 19s6p3d2f contracted to 5s4p3d2f pattern {88111/3111/111/11}
 Group   4 Type S   : 42s17p3d2f contracted to 6s5p3d2f pattern {131313111/77111/111/11}
 Group   5 Type H   : 5s2p1d contracted to 3s2p1d pattern {311/11/1}

Atom   0C    basis set group =>   1
Atom   1O    basis set group =>   2
Atom   2C    basis set group =>   1
Atom   3O    basis set group =>   2
Atom   4C    basis set group =>   1
Atom   5C    basis set group =>   1
Atom   6N    basis set group =>   3
Atom   7C    basis set group =>   1
Atom   8C    basis set group =>   1
Atom   9C    basis set group =>   1
Atom  10C    basis set group =>   1
Atom  11C    basis set group =>   1
Atom  12C    basis set group =>   1
Atom  13C    basis set group =>   1
Atom  14C    basis set group =>   1
Atom  15C    basis set group =>   1
Atom  16C    basis set group =>   1
Atom  17N    basis set group =>   3
Atom  18C    basis set group =>   1
Atom  19O    basis set group =>   2
Atom  20O    basis set group =>   2
Atom  21C    basis set group =>   1
Atom  22S    basis set group =>   4
Atom  23S    basis set group =>   4
Atom  24H    basis set group =>   5
Atom  25H    basis set group =>   5
Atom  26H    basis set group =>   5
Atom  27H    basis set group =>   5
Atom  28H    basis set group =>   5
Atom  29H    basis set group =>   5
Atom  30H    basis set group =>   5
Atom  31H    basis set group =>   5
Atom  32H    basis set group =>   5
Atom  33H    basis set group =>   5
---------------------------------
AUXILIARY/J BASIS SET INFORMATION
---------------------------------
There are 5 groups of distinct atoms

 Group   1 Type C   : 10s7p5d2f1g contracted to 10s7p5d2f1g pattern {1111111111/1111111/11111/11/1}
 Group   2 Type O   : 10s7p5d2f1g contracted to 10s7p5d2f1g pattern {1111111111/1111111/11111/11/1}
 Group   3 Type N   : 10s7p5d2f1g contracted to 10s7p5d2f1g pattern {1111111111/1111111/11111/11/1}
 Group   4 Type S   : 13s11p9d3f1g contracted to 13s11p9d3f1g pattern {1111111111111/11111111111/111111111/111/1}
 Group   5 Type H   : 4s3p2d1f contracted to 4s3p2d1f pattern {1111/111/11/1}

Atom   0C    basis set group =>   1
Atom   1O    basis set group =>   2
Atom   2C    basis set group =>   1
Atom   3O    basis set group =>   2
Atom   4C    basis set group =>   1
Atom   5C    basis set group =>   1
Atom   6N    basis set group =>   3
Atom   7C    basis set group =>   1
Atom   8C    basis set group =>   1
Atom   9C    basis set group =>   1
Atom  10C    basis set group =>   1
Atom  11C    basis set group =>   1
Atom  12C    basis set group =>   1
Atom  13C    basis set group =>   1
Atom  14C    basis set group =>   1
Atom  15C    basis set group =>   1
Atom  16C    basis set group =>   1
Atom  17N    basis set group =>   3
Atom  18C    basis set group =>   1
Atom  19O    basis set group =>   2
Atom  20O    basis set group =>   2
Atom  21C    basis set group =>   1
Atom  22S    basis set group =>   4
Atom  23S    basis set group =>   4
Atom  24H    basis set group =>   5
Atom  25H    basis set group =>   5
Atom  26H    basis set group =>   5
Atom  27H    basis set group =>   5
Atom  28H    basis set group =>   5
Atom  29H    basis set group =>   5
Atom  30H    basis set group =>   5
Atom  31H    basis set group =>   5
Atom  32H    basis set group =>   5
Atom  33H    basis set group =>   5
---------------------------------
AUXILIARY/C BASIS SET INFORMATION
---------------------------------
There are 5 groups of distinct atoms

 Group   1 Type C   : 9s7p6d4f2g contracted to 9s7p6d4f2g pattern {111111111/1111111/111111/1111/11}
 Group   2 Type O   : 9s7p6d4f2g contracted to 9s7p6d4f2g pattern {111111111/1111111/111111/1111/11}
 Group   3 Type N   : 9s7p6d4f2g contracted to 9s7p6d4f2g pattern {111111111/1111111/111111/1111/11}
 Group   4 Type S   : 11s9p8d6f3g contracted to 11s9p8d6f3g pattern {11111111111/111111111/11111111/111111/111}
 Group   5 Type H   : 4s3p2d1f contracted to 4s3p2d1f pattern {1111/111/11/1}

Atom   0C    basis set group =>   1
Atom   1O    basis set group =>   2
Atom   2C    basis set group =>   1
Atom   3O    basis set group =>   2
Atom   4C    basis set group =>   1
Atom   5C    basis set group =>   1
Atom   6N    basis set group =>   3
Atom   7C    basis set group =>   1
Atom   8C    basis set group =>   1
Atom   9C    basis set group =>   1
Atom  10C    basis set group =>   1
Atom  11C    basis set group =>   1
Atom  12C    basis set group =>   1
Atom  13C    basis set group =>   1
Atom  14C    basis set group =>   1
Atom  15C    basis set group =>   1
Atom  16C    basis set group =>   1
Atom  17N    basis set group =>   3
Atom  18C    basis set group =>   1
Atom  19O    basis set group =>   2
Atom  20O    basis set group =>   2
Atom  21C    basis set group =>   1
Atom  22S    basis set group =>   4
Atom  23S    basis set group =>   4
Atom  24H    basis set group =>   5
Atom  25H    basis set group =>   5
Atom  26H    basis set group =>   5
Atom  27H    basis set group =>   5
Atom  28H    basis set group =>   5
Atom  29H    basis set group =>   5
Atom  30H    basis set group =>   5
Atom  31H    basis set group =>   5
Atom  32H    basis set group =>   5
Atom  33H    basis set group =>   5


           ************************************************************
           *        Program running with 4 parallel MPI-processes     *
           *              working on a common directory               *
           ************************************************************
------------------------------------------------------------------------------
                           ORCA GTO INTEGRAL CALCULATION
                           -- RI-GTO INTEGRALS CHOSEN --
------------------------------------------------------------------------------
------------------------------------------------------------------------------
                   ___                                                        
                  /   \      - P O W E R E D   B Y -                         
                 /     \                                                     
                 |  |  |   _    _      __       _____    __    __             
                 |  |  |  | |  | |    /  \     |  _  \  |  |  /  |          
                  \  \/   | |  | |   /    \    | | | |  |  | /  /          
                 / \  \   | |__| |  /  /\  \   | |_| |  |  |/  /          
                |  |  |   |  __  | /  /__\  \  |    /   |      \           
                |  |  |   | |  | | |   __   |  |    \   |  |\   \          
                \     /   | |  | | |  |  |  |  | |\  \  |  | \   \       
                 \___/    |_|  |_| |__|  |__|  |_| \__\ |__|  \__/        
                                                                              
                      - O R C A' S   B I G   F R I E N D -                    
                                      &                                       
                       - I N T E G R A L  F E E D E R -                       
                                                                              
 v1 FN, 2020, v2 2021                                                         
------------------------------------------------------------------------------


Reading SHARK input file optpbed3-wb2plyp-train-6.SHARKINP.tmp ... ok
----------------------
SHARK INTEGRAL PACKAGE
----------------------

Number of atoms                             ...     34
Number of basis functions                   ...   1434
Number of shells                            ...    562
Maximum angular momentum                    ...      3
Integral batch strategy                     ... SHARK/LIBINT Hybrid
RI-J (if used) integral strategy            ... SPLIT-RIJ (Revised 2003 algorithm where possible)
Printlevel                                  ...      1
Contraction scheme used                     ... PARTIAL GENERAL contraction
Coulomb Range Separation                    ... NOT USED
Exchange Range Separation                   ... NOT USED
Finite Nucleus Model                        ... NOT USED
Auxiliary Coulomb fitting basis             ... AVAILABLE
   # of basis functions in Aux-J            ...   2280
   # of shells in Aux-J                     ...    724
   Maximum angular momentum in Aux-J        ...      4
Auxiliary J/K fitting basis                 ... NOT available
Auxiliary Correlation fitting basis         ... AVAILABLE
   # of basis functions in Aux-C            ...   2926
   # of shells in Aux-C                     ...    790
   Maximum angular momentum in Aux-C        ...      4
Auxiliary 'external' fitting basis          ... NOT available
Integral threshold                          ...     2.500000e-11
Primitive cut-off                           ...     2.500000e-12
Primitive pair pre-selection threshold      ...     2.500000e-12

Calculating pre-screening integrals         ... done (  0.3 sec) Dimension = 562
Calculating pre-screening integrals (ORCA)  ... done (  0.9 sec) Dimension = 400
Organizing shell pair data                  ... done (  2.1 sec)
Shell pair information
Total number of shell pairs                 ...    158203
Shell pairs after pre-screening             ...     85650
Total number of primitive shell pairs       ...    196347
Primitive shell pairs kept                  ...     96907
          la=0 lb=0:  18561 shell pairs
          la=1 lb=0:  22526 shell pairs
          la=1 lb=1:   5894 shell pairs
          la=2 lb=0:  13907 shell pairs
          la=2 lb=1:   7229 shell pairs
          la=2 lb=2:   2287 shell pairs
          la=3 lb=0:   7717 shell pairs
          la=3 lb=1:   4172 shell pairs
          la=3 lb=2:   2591 shell pairs
          la=3 lb=3:    766 shell pairs

Calculating one electron integrals          ... done (  0.3 sec)
Calculating RI/J V-Matrix + Cholesky decomp.... done (  0.4 sec)
Calculating RI/C V-Matrix + Cholesky decomp.... done (  0.7 sec)
Calculating Nuclear repulsion               ... done (  0.0 sec) ENN=   2124.042008873448 Eh

SHARK setup successfully completed in   6.3 seconds

Maximum memory used throughout the entire GTOINT-calculation: 142.8 MB


           ************************************************************
           *        Program running with 4 parallel MPI-processes     *
           *              working on a common directory               *
           ************************************************************
-------------------------------------------------------------------------------
                                 ORCA SCF
-------------------------------------------------------------------------------

------------
SCF SETTINGS
------------
Hamiltonian:
 Density Functional     Method          .... DFT(GTOs)
 Exchange Functional    Exchange        .... PBE
   PBE kappa parameter   XKappa         ....  0.804000
   PBE mue parameter    XMuePBE         ....  0.219520
 Correlation Functional Correlation     .... PBE
   PBE beta parameter  CBetaPBE         ....  0.066725
 LDA part of GGA corr.  LDAOpt          .... PW91-LDA
 Gradients option       PostSCFGGA      .... off
 Hybrid DFT is turned on
   Fraction HF Exchange ScalHFX         ....  0.250000
   Scaling of DF-GGA-X  ScalDFX         ....  0.750000
   Scaling of DF-GGA-C  ScalDFC         ....  1.000000
   Scaling of DF-LDA-C  ScalLDAC        ....  1.000000
   Perturbative correction              ....  0.000000
   Density functional embedding theory  .... OFF
   NL short-range parameter             ....  6.900000
 RI-approximation to the Coulomb term is turned on
   Number of AuxJ basis functions       .... 2280
   RIJ-COSX (HFX calculated with COS-X)).... on


General Settings:
 Integral files         IntName         .... optpbed3-wb2plyp-train-6
 Hartree-Fock type      HFTyp           .... RHF
 Total Charge           Charge          ....    0
 Multiplicity           Mult            ....    1
 Number of Electrons    NEL             ....  184
 Basis Dimension        Dim             .... 1252
 Nuclear Repulsion      ENuc            ....   2124.0420088734 Eh

Convergence Acceleration:
 DIIS                   CNVDIIS         .... on
   Start iteration      DIISMaxIt       ....    12
   Startup error        DIISStart       ....  0.200000
   # of expansion vecs  DIISMaxEq       ....     5
   Bias factor          DIISBfac        ....   1.050
   Max. coefficient     DIISMaxC        ....  10.000
 Trust-Rad. Augm. Hess. CNVTRAH         .... auto
   Auto Start mean grad. ratio tolernc. ....  1.125000
   Auto Start start iteration           ....    20
   Auto Start num. interpolation iter.  ....    10
   Max. Number of Micro iterations      ....    16
   Max. Number of Macro iterations      .... Maxiter - #DIIS iter
   Number of Davidson start vectors     ....     2
   Converg. threshold I  (grad. norm)   ....   1.000e-05
   Converg. threshold II (energy diff.) ....   1.000e-08
   Grad. Scal. Fac. for Micro threshold ....   0.100
   Minimum threshold for Micro iter.    ....   0.010
   NR start threshold (gradient norm)   ....   0.001
   Initial trust radius                 ....   0.400
   Minimum AH scaling param. (alpha)    ....   1.000
   Maximum AH scaling param. (alpha)    .... 1000.000
   Orbital update algorithm             .... Taylor
   White noise on init. David. guess    .... on
   Maximum white noise                  ....   0.010
   Quad. conv. algorithm                .... NR
 SOSCF                  CNVSOSCF        .... on
   Start iteration      SOSCFMaxIt      ....   150
   Startup grad/error   SOSCFStart      ....  0.003300
 Level Shifting         CNVShift        .... on
   Level shift para.    LevelShift      ....    0.2500
   Turn off err/grad.   ShiftErr        ....    0.0010
 Zerner damping         CNVZerner       .... off
 Static damping         CNVDamp         .... on
   Fraction old density DampFac         ....    0.7000
   Max. Damping (<1)    DampMax         ....    0.9800
   Min. Damping (>=0)   DampMin         ....    0.0000
   Turn off err/grad.   DampErr         ....    0.1000
 Fernandez-Rico         CNVRico         .... off

SCF Procedure:
 Maximum # iterations   MaxIter         ....   125
 SCF integral mode      SCFMode         .... Direct
   Integral package                     .... SHARK and LIBINT hybrid scheme
 Reset frequency        DirectResetFreq ....    20
 Integral Threshold     Thresh          ....  2.500e-11 Eh
 Primitive CutOff       TCut            ....  2.500e-12 Eh

Convergence Tolerance:
 Convergence Check Mode ConvCheckMode   .... Total+1el-Energy
 Convergence forced     ConvForced      .... 0
 Energy Change          TolE            ....  1.000e-08 Eh
 1-El. energy change                    ....  1.000e-05 Eh
 Orbital Gradient       TolG            ....  1.000e-05
 Orbital Rotation angle TolX            ....  1.000e-05
 DIIS Error             TolErr          ....  5.000e-07


Diagonalization of the overlap matrix:
Smallest eigenvalue                        ... 3.061e-07
Time for diagonalization                   ...    0.400 sec
Threshold for overlap eigenvalues          ... 1.000e-08
Number of eigenvalues below threshold      ... 0
Time for construction of square roots      ...    0.283 sec
Total time needed                          ...    0.692 sec

Time for model grid setup =    1.072 sec

------------------------------
INITIAL GUESS: MODEL POTENTIAL
------------------------------
Loading Hartree-Fock densities                     ... done
Calculating cut-offs                               ... done
Initializing the effective Hamiltonian             ... done
Setting up the integral package (SHARK)            ... done
Starting the Coulomb interaction                   ... done (   3.5 sec)
Reading the grid                                   ... done
Mapping shells                                     ... done
Starting the XC term evaluation                    ... done (   2.6 sec)
  promolecular density results
     # of electrons  =    183.997693624
     EX              =   -180.262481498
     EC              =     -6.378318293
     EX+EC           =   -186.640799792
Transforming the Hamiltonian                       ... done (   0.2 sec)
Diagonalizing the Hamiltonian                      ... done (   0.4 sec)
Back transforming the eigenvectors                 ... done (   0.1 sec)
Now organizing SCF variables                       ... done
                      ------------------
                      INITIAL GUESS DONE (   7.9 sec)
                      ------------------
-------------------
DFT GRID GENERATION
-------------------

General Integration Accuracy     IntAcc      ... 4.388
Radial Grid Type                 RadialGrid  ... OptM3 with GC (2021)
Angular Grid (max. ang.)         AngularGrid ... 4 (Lebedev-302)
Angular grid pruning method      GridPruning ... 4 (adaptive)
Weight generation scheme         WeightScheme... Becke
Basis function cutoff            BFCut       ... 1.0000e-11
Integration weight cutoff        WCut        ... 1.0000e-14
Angular grids for H and He will be reduced by one unit
Partially contracted basis set               ... off
Rotationally invariant grid construction     ... off

Total number of grid points                  ...   185408
Total number of batches                      ...     2913
Average number of points per batch           ...       63
Average number of grid points per atom       ...     5453
Time for grid setup =    3.268 sec

--------------------
COSX GRID GENERATION
--------------------

GRIDX 1
-------
General Integration Accuracy     IntAcc      ... 3.816
Radial Grid Type                 RadialGrid  ... OptM3 with GC (2021)
Angular Grid (max. ang.)         AngularGrid ... 1 (Lebedev-50)
Angular grid pruning method      GridPruning ... 4 (adaptive)
Weight generation scheme         WeightScheme... Becke
Basis function cutoff            BFCut       ... 1.0000e-11
Integration weight cutoff        WCut        ... 1.0000e-14
Angular grids for H and He will be reduced by one unit
Partially contracted basis set               ... on
Rotationally invariant grid construction     ... off

Total number of grid points                  ...    23357
Total number of batches                      ...      380
Average number of points per batch           ...       61
Average number of grid points per atom       ...      687
UseSFitting                                  ... on

GRIDX 2
-------
General Integration Accuracy     IntAcc      ... 4.020
Radial Grid Type                 RadialGrid  ... OptM3 with GC (2021)
Angular Grid (max. ang.)         AngularGrid ... 2 (Lebedev-110)
Angular grid pruning method      GridPruning ... 4 (adaptive)
Weight generation scheme         WeightScheme... Becke
Basis function cutoff            BFCut       ... 1.0000e-11
Integration weight cutoff        WCut        ... 1.0000e-14
Angular grids for H and He will be reduced by one unit
Partially contracted basis set               ... on
Rotationally invariant grid construction     ... off

Total number of grid points                  ...    57561
Total number of batches                      ...      919
Average number of points per batch           ...       62
Average number of grid points per atom       ...     1693
UseSFitting                                  ... on

GRIDX 3
-------
General Integration Accuracy     IntAcc      ... 4.338
Radial Grid Type                 RadialGrid  ... OptM3 with GC (2021)
Angular Grid (max. ang.)         AngularGrid ... 3 (Lebedev-194)
Angular grid pruning method      GridPruning ... 4 (adaptive)
Weight generation scheme         WeightScheme... Becke
Basis function cutoff            BFCut       ... 1.0000e-11
Integration weight cutoff        WCut        ... 1.0000e-14
Angular grids for H and He will be reduced by one unit
Partially contracted basis set               ... on
Rotationally invariant grid construction     ... off

Total number of grid points                  ...   125435
Total number of batches                      ...     1977
Average number of points per batch           ...       63
Average number of grid points per atom       ...     3689
UseSFitting                                  ... on

Time for X-Grid setup             =    8.033 sec


--------------------
CPCM SOLVATION MODEL
--------------------
CPCM parameters:
  Epsilon                                         ...       2.3741
  Refrac                                          ...       1.4961
  Rsolv                                           ...       1.3000
  Surface type                                    ... GAUSSIAN VDW
  Epsilon function type                           ...         CPCM
Solvent:                                     ... TOLUENE
SMD-CDS solvent descriptors:
  Soln                                       ...    1.4961
  Soln25                                     ...    1.4936
  Sola                                       ...    0.0000
  Solb                                       ...    0.1400
  Solg                                       ...   40.2000
  Solc                                       ...    0.8570
  Solh                                       ...    0.0000
Radii:
 Radius for C  used is    3.4960 Bohr (=   1.8500 Ang.)
 Radius for O  used is    4.3350 Bohr (=   2.2940 Ang.)
 Radius for N  used is    3.5716 Bohr (=   1.8900 Ang.)
 Radius for S  used is    4.7054 Bohr (=   2.4900 Ang.)
 Radius for H  used is    2.2677 Bohr (=   1.2000 Ang.)
Calculating surface                               ...        done! (  0.0s)
GEPOL surface points                              ...         1779
GEPOL Volume                                      ...    2758.6728
GEPOL Surface-area                                ...    1373.4159
Calculating surface distance matrix               ...        done! (  0.0s)
Performing Cholesky decomposition & store         ...        done! (  0.2s)
Overall time for CPCM initialization              ...                 0.2s
 re-compute Schwartz prescreening matrix in partically contracted basis (1) ...done (   0.294 sec)
--------------
SCF ITERATIONS
--------------
ITER       Energy         Delta-E        Max-DP      RMS-DP      [F,P]     Damp
               ***  Starting incremental Fock matrix formation  ***
  0  -1820.8517141179   0.000000000000 0.17178501  0.00139074  0.2984732 0.7000
  1  -1821.1243699726  -0.272655854684 0.13701258  0.00113092  0.1136456 0.7000
                               ***Turning on DIIS***
  2  -1821.2238218203  -0.099451847707 0.25548988  0.00234811  0.0348500 0.0000
  3  -1821.3916624850  -0.167840664687 0.09900508  0.00062724  0.0531936 0.0000
  4  -1821.4242165641  -0.032554079123 0.04192927  0.00029345  0.0219529 0.0000
  5  -1821.4276739519  -0.003457387823 0.01370043  0.00009939  0.0044652 0.0000
                      *** Initiating the SOSCF procedure ***
                           *** Shutting down DIIS ***
                      *** Re-Reading the Fockian *** 
                      *** Removing any level shift *** 
ITER      Energy       Delta-E        Grad      Rot      Max-DP    RMS-DP
  6  -1821.42785825  -0.0001843017  0.000771  0.000771  0.009785  0.000061
               *** Restarting incremental Fock matrix formation ***
  7  -1821.42788088  -0.0000226243  0.000553  0.003483  0.055869  0.000569
  8  -1821.42789167  -0.0000107929  0.000302  0.002501  0.030387  0.000282
  9  -1821.42789547  -0.0000037952  0.000183  0.001108  0.035072  0.000268
 10  -1821.42789763  -0.0000021625  0.000094  0.000788  0.026939  0.000114
 11  -1821.42789776  -0.0000001330  0.000103  0.000508  0.009691  0.000084
 12  -1821.42789814  -0.0000003821  0.000024  0.000141  0.012584  0.000084
 13  -1821.42789814   0.0000000046  0.000032  0.000121  0.007327  0.000061
 14  -1821.42789817  -0.0000000296  0.000005  0.000039  0.017966  0.000080
 15  -1821.42789816   0.0000000103  0.000008  0.000027  0.010005  0.000067
                  ***Gradient check signals convergence***
              ***Rediagonalizing the Fockian in SOSCF/NRSCF***

               *****************************************************
               *                     SUCCESS                       *
               *           SCF CONVERGED AFTER  16 CYCLES          *
               *****************************************************

Old exchange energy                            =    -45.650892072 Eh
New exchange energy                            =    -45.650838265 Eh
Exchange energy change after final integration =      0.000053807 Eh
Total energy after final integration           =  -1821.427844380 Eh
Final COS-X integration done in                =   194.603 sec

SMD CDS free energy correction energy :                -3.71137     Kcal/mol
Total Energy after SMD CDS correction =             -1821.433758825 Eh

----------------
TOTAL SCF ENERGY
----------------

Total Energy       :        -1821.43375882 Eh          -49563.73235 eV

Components:
Nuclear Repulsion  :         2124.04200887 Eh           57798.12146 eV
Electronic Energy  :        -3945.47576770 Eh         -107361.85381 eV
One Electron Energy:        -6716.85764606 Eh         -182774.98865 eV
Two Electron Energy:         2771.38187836 Eh           75413.13484 eV
Max COSX asymmetry :            0.00004954 Eh               0.00135 eV
CPCM Dielectric    :           -0.01917385 Eh              -0.52175 eV
SMD CDS (Gcds)     :           -0.00591444 Eh              -0.16094 eV

Virial components:
Potential Energy   :        -3635.39480411 Eh          -98924.12182 eV
Kinetic Energy     :         1813.96104528 Eh           49360.38948 eV
Virial Ratio       :            2.00411956


DFT components:
N(Alpha)           :       92.000016359520 electrons
N(Beta)            :       92.000016359520 electrons
N(Total)           :      184.000032719041 electrons
E(X)               :     -136.668897071660 Eh       
E(C)               :       -6.384340482056 Eh       
E(XC)              :     -143.053237553717 Eh       
DFET-embed. en.    :        0.000000000000 Eh       
CPCM Solvation Model Properties:
Surface-charge          :           -0.03604871
Charge-correction       :            0.00015196 Eh               0.00413 eV
Free-energy (cav+disp)  :           -0.00591444 Eh              -0.16094 eV

---------------
SCF CONVERGENCE
---------------

  Last Energy change         ...   -2.8313e-08  Tolerance :   1.0000e-08
  Last MAX-Density change    ...    5.5511e-15  Tolerance :   1.0000e-07
  Last RMS-Density change    ...    2.0377e-17  Tolerance :   5.0000e-09
  Last Orbital Gradient      ...    2.2199e-06  Tolerance :   1.0000e-05
  Last Orbital Rotation      ...    2.7840e-05  Tolerance :   1.0000e-05

             **** THE GBW FILE WAS UPDATED (optpbed3-wb2plyp-train-6.gbw) ****
             **** DENSITY optpbed3-wb2plyp-train-6.scfp WAS UPDATED ****
             **** ENERGY FILE WAS UPDATED (optpbed3-wb2plyp-train-6.en.tmp) ****
             **** THE GBW FILE WAS UPDATED (optpbed3-wb2plyp-train-6.gbw) ****
             **** DENSITY optpbed3-wb2plyp-train-6.scfp WAS UPDATED ****
----------------
ORBITAL ENERGIES
----------------

  NO   OCC          E(Eh)            E(eV) 
   0   2.0000     -89.109055     -2424.7806 
   1   2.0000     -89.105834     -2424.6930 
   2   2.0000     -19.277747      -524.5742 
   3   2.0000     -19.277574      -524.5695 
   4   2.0000     -19.219571      -522.9911 
   5   2.0000     -19.211344      -522.7673 
   6   2.0000     -14.392992      -391.6532 
   7   2.0000     -14.392484      -391.6394 
   8   2.0000     -10.377386      -282.3830 
   9   2.0000     -10.374760      -282.3116 
  10   2.0000     -10.324542      -280.9451 
  11   2.0000     -10.321026      -280.8494 
  12   2.0000     -10.309767      -280.5430 
  13   2.0000     -10.305145      -280.4173 
  14   2.0000     -10.294061      -280.1156 
  15   2.0000     -10.290041      -280.0062 
  16   2.0000     -10.282514      -279.8014 
  17   2.0000     -10.281180      -279.7651 
  18   2.0000     -10.277941      -279.6770 
  19   2.0000     -10.277561      -279.6667 
  20   2.0000     -10.277170      -279.6560 
  21   2.0000     -10.275977      -279.6236 
  22   2.0000     -10.274281      -279.5774 
  23   2.0000     -10.273505      -279.5563 
  24   2.0000      -8.066020      -219.4876 
  25   2.0000      -8.061978      -219.3776 
  26   2.0000      -6.003317      -163.3586 
  27   2.0000      -5.999486      -163.2543 
  28   2.0000      -5.999300      -163.2492 
  29   2.0000      -5.995743      -163.1525 
  30   2.0000      -5.995360      -163.1420 
  31   2.0000      -5.991811      -163.0455 
  32   2.0000      -1.164758       -31.6947 
  33   2.0000      -1.161077       -31.5945 
  34   2.0000      -1.074467       -29.2377 
  35   2.0000      -1.068889       -29.0860 
  36   2.0000      -0.966801       -26.3080 
  37   2.0000      -0.956660       -26.0320 
  38   2.0000      -0.949683       -25.8422 
  39   2.0000      -0.938998       -25.5514 
  40   2.0000      -0.878317       -23.9002 
  41   2.0000      -0.856981       -23.3196 
  42   2.0000      -0.814149       -22.1541 
  43   2.0000      -0.805363       -21.9150 
  44   2.0000      -0.788387       -21.4531 
  45   2.0000      -0.769448       -20.9377 
  46   2.0000      -0.755247       -20.5513 
  47   2.0000      -0.719235       -19.5714 
  48   2.0000      -0.662949       -18.0398 
  49   2.0000      -0.641955       -17.4685 
  50   2.0000      -0.626529       -17.0487 
  51   2.0000      -0.624981       -17.0066 
  52   2.0000      -0.608863       -16.5680 
  53   2.0000      -0.594533       -16.1781 
  54   2.0000      -0.578163       -15.7326 
  55   2.0000      -0.564702       -15.3663 
  56   2.0000      -0.557952       -15.1826 
  57   2.0000      -0.532861       -14.4999 
  58   2.0000      -0.522877       -14.2282 
  59   2.0000      -0.521423       -14.1887 
  60   2.0000      -0.512152       -13.9364 
  61   2.0000      -0.505737       -13.7618 
  62   2.0000      -0.489608       -13.3229 
  63   2.0000      -0.473738       -12.8911 
  64   2.0000      -0.466732       -12.7004 
  65   2.0000      -0.459624       -12.5070 
  66   2.0000      -0.457090       -12.4380 
  67   2.0000      -0.452821       -12.3219 
  68   2.0000      -0.447210       -12.1692 
  69   2.0000      -0.435289       -11.8448 
  70   2.0000      -0.434455       -11.8221 
  71   2.0000      -0.421561       -11.4713 
  72   2.0000      -0.416863       -11.3434 
  73   2.0000      -0.406252       -11.0547 
  74   2.0000      -0.398245       -10.8368 
  75   2.0000      -0.397751       -10.8234 
  76   2.0000      -0.397141       -10.8068 
  77   2.0000      -0.393490       -10.7074 
  78   2.0000      -0.389587       -10.6012 
  79   2.0000      -0.387126       -10.5342 
  80   2.0000      -0.371859       -10.1188 
  81   2.0000      -0.366972        -9.9858 
  82   2.0000      -0.361973        -9.8498 
  83   2.0000      -0.347330        -9.4513 
  84   2.0000      -0.340111        -9.2549 
  85   2.0000      -0.337012        -9.1706 
  86   2.0000      -0.316054        -8.6003 
  87   2.0000      -0.311688        -8.4815 
  88   2.0000      -0.309744        -8.4286 
  89   2.0000      -0.302228        -8.2240 
  90   2.0000      -0.291859        -7.9419 
  91   2.0000      -0.233987        -6.3671 
  92   0.0000      -0.144736        -3.9385 
  93   0.0000      -0.075124        -2.0442 
  94   0.0000      -0.022289        -0.6065 
  95   0.0000      -0.007834        -0.2132 
  96   0.0000      -0.000314        -0.0085 
  97   0.0000       0.002123         0.0578 
  98   0.0000       0.004687         0.1275 
  99   0.0000       0.005946         0.1618 
 100   0.0000       0.009492         0.2583 
 101   0.0000       0.010155         0.2763 
 102   0.0000       0.014029         0.3817 
 103   0.0000       0.019023         0.5176 
 104   0.0000       0.021957         0.5975 
 105   0.0000       0.024311         0.6615 
 106   0.0000       0.025782         0.7016 
 107   0.0000       0.027342         0.7440 
 108   0.0000       0.028246         0.7686 
 109   0.0000       0.032406         0.8818 
 110   0.0000       0.034768         0.9461 
 111   0.0000       0.037113         1.0099 
 112   0.0000       0.041413         1.1269 
 113   0.0000       0.041568         1.1311 
 114   0.0000       0.044583         1.2132 
 115   0.0000       0.049135         1.3370 
 116   0.0000       0.050634         1.3778 
 117   0.0000       0.053989         1.4691 
 118   0.0000       0.057915         1.5759 
 119   0.0000       0.061443         1.6720 
 120   0.0000       0.064012         1.7419 
 121   0.0000       0.068952         1.8763 
 122   0.0000       0.073635         2.0037 
 123   0.0000       0.073697         2.0054 
 124   0.0000       0.079004         2.1498 
 125   0.0000       0.081923         2.2292 
 126   0.0000       0.083174         2.2633 
 127   0.0000       0.087800         2.3892 
 128   0.0000       0.089990         2.4487 
 129   0.0000       0.091150         2.4803 
 130   0.0000       0.094733         2.5778 
 131   0.0000       0.100423         2.7327 
 132   0.0000       0.101023         2.7490 
[...]
   Time for Sigma-Completion:     0.266
   Size of expansion space: 40
   Lowest Energy          :     0.102030079107
   Maximum Energy change  :     0.000792270762 (vector 9)
   Maximum residual norm  :     0.000383042406

                       ****Iteration    8****
   Time for densities:            0.384
   Time for RI-J (Direct):       16.406
   Time for K (COSX):            80.837
   Time for XC-Integration:      23.168
   Time for LR-CPCM terms:       12.802
   Time for Sigma-Completion:     0.252
   Size of expansion space: 50
   Lowest Energy          :     0.102030077317
   Maximum Energy change  :     0.001812149909 (vector 9)
   Maximum residual norm  :     0.000608427983

                       ****Iteration    9****
   Time for densities:            0.396
   Time for RI-J (Direct):       16.551
   Time for K (COSX):            81.225
   Time for XC-Integration:      23.097
   Time for LR-CPCM terms:       12.710
   Time for Sigma-Completion:     0.276
   Size of expansion space: 60
   Lowest Energy          :     0.102030077214
   Maximum Energy change  :     0.001817342122 (vector 9)
   Maximum residual norm  :     0.000409373345

                       ****Iteration   10****
   Time for densities:            0.382
   Time for RI-J (Direct):       16.487
   Time for K (COSX):            81.999
   Time for XC-Integration:      22.913
   Time for LR-CPCM terms:       12.672
   Time for Sigma-Completion:     0.275
   Size of expansion space: 70
   Lowest Energy          :     0.102030077206
   Maximum Energy change  :     0.002831738565 (vector 8)
   Maximum residual norm  :     0.001773116378
   Rebuilding the expansion space

                       ****Iteration   11****
   Time for densities:            0.793
   Time for RI-J (Direct):       21.836
   Time for K (COSX):           142.968
   Time for XC-Integration:      43.767
   Time for LR-CPCM terms:       20.526
   Time for Sigma-Completion:     0.505
   Size of expansion space: 20
   Lowest Energy          :     0.102030080592
   Maximum Energy change  :     0.003218109988 (vector 8)
   Maximum residual norm  :     0.000820660619

                       ****Iteration   12****
   Time for densities:            0.391
   Time for RI-J (Direct):       16.884
   Time for K (COSX):            82.612
   Time for XC-Integration:      24.083
   Time for LR-CPCM terms:       13.028
   Time for Sigma-Completion:     0.292
   Size of expansion space: 30
   Lowest Energy          :     0.102030080592
   Maximum Energy change  :     0.001640776410 (vector 8)
   Maximum residual norm  :     0.000337458327

                       ****Iteration   13****
   Time for densities:            0.376
   Time for RI-J (Direct):       16.595
   Time for K (COSX):            82.004
   Time for XC-Integration:      24.288
   Time for LR-CPCM terms:       12.946
   Time for Sigma-Completion:     0.282
   Size of expansion space: 40
   Lowest Energy          :     0.102030080592
   Maximum Energy change  :     0.001024110872 (vector 7)
   Maximum residual norm  :     0.000248029199

                       ****Iteration   14****
   Time for densities:            0.345
   Time for RI-J (Direct):       16.041
   Time for K (COSX):            76.031
   Time for XC-Integration:      21.255
   Time for LR-CPCM terms:       12.034
   Time for Sigma-Completion:     0.247
   Size of expansion space: 49
   Lowest Energy          :     0.102030080592
   Maximum Energy change  :     0.000431572794 (vector 7)
   Maximum residual norm  :     0.000098933514

                       ****Iteration   15****
   Time for densities:            0.356
   Time for RI-J (Direct):       16.120
   Time for K (COSX):            76.333
   Time for XC-Integration:      21.532
   Time for LR-CPCM terms:       12.100
   Time for Sigma-Completion:     0.242
   Size of expansion space: 58
   Lowest Energy          :     0.102030080592
   Maximum Energy change  :     0.000344252152 (vector 6)
   Maximum residual norm  :     0.000097078797

                       ****Iteration   16****
   Time for densities:            0.357
   Time for RI-J (Direct):       16.014
   Time for K (COSX):            75.115
   Time for XC-Integration:      21.135
   Time for LR-CPCM terms:       12.046
   Time for Sigma-Completion:     0.241
   Size of expansion space: 67
   Lowest Energy          :     0.102030080592
   Maximum Energy change  :     0.000201956227 (vector 6)
   Maximum residual norm  :     0.000047129453
   Rebuilding the expansion space

                       ****Iteration   17****
   Time for densities:            0.722
   Time for RI-J (Direct):       22.754
   Time for K (COSX):           135.618
   Time for XC-Integration:      42.304
   Time for LR-CPCM terms:       19.996
   Time for Sigma-Completion:     0.505
   Size of expansion space: 19
   Lowest Energy          :     0.102030080649
   Maximum Energy change  :     0.000058777598 (vector 6)
   Maximum residual norm  :     0.000013538190

                       ****Iteration   18****
   Time for densities:            0.389
   Time for RI-J (Direct):       16.841
   Time for K (COSX):            83.894
   Time for XC-Integration:      25.320
   Time for LR-CPCM terms:       13.038
   Time for Sigma-Completion:     0.250
   Size of expansion space: 29
   Lowest Energy          :     0.102030080648
   Maximum Energy change  :     0.000030421156 (vector 6)
   Maximum residual norm  :     0.000006638430

                       ****Iteration   19****
   Time for densities:            0.345
   Time for RI-J (Direct):       16.282
   Time for K (COSX):            75.869
   Time for XC-Integration:      22.443
   Time for LR-CPCM terms:       12.253
   Time for Sigma-Completion:     0.251
   Size of expansion space: 38
   Lowest Energy          :     0.102030080648
   Maximum Energy change  :     0.000012991769 (vector 6)
   Maximum residual norm  :     0.000003225050

                       ****Iteration   20****
   Time for densities:            0.365
   Time for RI-J (Direct):       16.441
   Time for K (COSX):            78.243
   Time for XC-Integration:      22.441
   Time for LR-CPCM terms:       12.141
   Time for Sigma-Completion:     0.303
   Size of expansion space: 47
   Lowest Energy          :     0.102030080648
   Maximum Energy change  :     0.000006487307 (vector 6)
   Maximum residual norm  :     0.000001473654

                       ****Iteration   21****
   Time for densities:            0.299
   Time for RI-J (Direct):       16.454
   Time for K (COSX):            77.011
   Time for XC-Integration:      22.554
   Time for LR-CPCM terms:       12.326
   Time for Sigma-Completion:     0.251
   Size of expansion space: 56
   Lowest Energy          :     0.102030080648
   Maximum Energy change  :     0.000005001793 (vector 9)
   Maximum residual norm  :     0.000001581914

                       ****Iteration   22****
   Time for densities:            0.358
   Time for RI-J (Direct):       16.423
   Time for K (COSX):            77.929
   Time for XC-Integration:      22.163
   Time for LR-CPCM terms:       12.265
   Time for Sigma-Completion:     0.258
   Size of expansion space: 65
   Lowest Energy          :     0.102030080648
   Maximum Energy change  :     0.000005745987 (vector 9)
   Maximum residual norm  :     0.000001675001
   Rebuilding the expansion space

                       ****Iteration   23****
   Time for densities:            0.736
   Time for RI-J (Direct):       22.694
   Time for K (COSX):           137.854
   Time for XC-Integration:      43.039
   Time for LR-CPCM terms:       19.734
   Time for Sigma-Completion:     0.486
   Size of expansion space: 19
   Lowest Energy          :     0.102030080643
   Maximum Energy change  :     0.000002762270 (vector 9)
   Maximum residual norm  :     0.000000703038

      *** CONVERGENCE OF RESIDUAL NORM REACHED ***

Storing the converged CI vectors               ... optpbed3-wb2plyp-train-6_job2.cis1

                 *** DAVIDSON DONE ***

Total time for solving the CIS problem:  3756.878sec

------------------
DOUBLES CORRECTION (Double precision version)
------------------

The (D) correction will be scaled by  0.2700
Doing v(i,a)*T(i,a) terms (RI)                    ... ok
Doing u(i,j,a,b) terms for state   0              ... ok
Doing u(i,j,a,b) terms for state   1              ... ok
Doing u(i,j,a,b) terms for state   2              ... ok
Doing u(i,j,a,b) terms for state   3              ... ok
Doing u(i,j,a,b) terms for state   4              ... ok
Doing u(i,j,a,b) terms for state   5              ... ok
Doing u(i,j,a,b) terms for state   6              ... ok
Doing u(i,j,a,b) terms for state   7              ... ok
Doing u(i,j,a,b) terms for state   8              ... ok
Doing u(i,j,a,b) terms for state   9              ... ok

Contributions to the (D) correction(s) (in eV)

STATE  Final   Init.   Total   v(ext)   v(int)  v(3)    u
       omega   omega     (D)                             
-----------------------------------------------------------------------------
   0   2.535   2.776  -0.241   0.603   0.866  -0.064  -1.647
   1   4.078   4.479  -0.401   0.550   0.743  -0.061  -1.633
   2   4.160   4.536  -0.376   0.598   0.675  -0.033  -1.616
   3   4.331   4.729  -0.398   0.556   0.731  -0.034  -1.651
   4   4.558   5.088  -0.530   0.577   0.830  -0.036  -1.900
   5   4.735   5.467  -0.732   0.615   0.745  -0.018  -2.074
   6   5.039   5.697  -0.658   0.601   0.735  -0.023  -1.970
   7   5.589   5.722  -0.133   0.069   0.858  -0.003  -1.057
   8   5.507   5.773  -0.266   0.414   0.813  -0.066  -1.427
   9   5.779   5.991  -0.213   0.280   0.794  -0.012  -1.276

(D)-timings
 V(i,a)*T(i,a) terms           ...   957.870 sec
 U(i,j,a,b) 3-internal         ...    25.870 sec
 U(i,j,a,b) 3-external         ...   592.070 sec
 U(i,j,a,b) pair terms         ...   583.659 sec
 Total measured time           ...  5430.706 sec

 Time for (ab|v) I/O           ...    85.777 sec


------------------------------------
TD-DFT/TDA EXCITED STATES (SINGLETS)
------------------------------------

the weight of the individual excitations are printed if larger than 1.0e-02

STATE  1:  E=   0.093160 au      2.535 eV    20446.4 cm**-1 <S**2> =   0.000000
    90a ->  93a  :     0.025246 (c= -0.15888990)
    91a ->  92a  :     0.941890 (c= -0.97050997)

STATE  2:  E=   0.149874 au      4.078 eV    32893.4 cm**-1 <S**2> =   0.000000
    88a ->  92a  :     0.114434 (c=  0.33828070)
    89a ->  92a  :     0.080620 (c=  0.28393575)
    89a ->  93a  :     0.019970 (c= -0.14131543)
    90a ->  92a  :     0.311835 (c=  0.55842144)
    91a ->  93a  :     0.415202 (c=  0.64436182)

STATE  3:  E=   0.152875 au      4.160 eV    33552.3 cm**-1 <S**2> =   0.000000
    88a ->  93a  :     0.048593 (c= -0.22043927)
    89a ->  92a  :     0.834784 (c=  0.91366490)
    90a ->  92a  :     0.019479 (c= -0.13956581)
    91a ->  93a  :     0.056812 (c= -0.23835185)

STATE  4:  E=   0.159150 au      4.331 eV    34929.4 cm**-1 <S**2> =   0.000000
    88a ->  92a  :     0.531602 (c= -0.72911018)
    89a ->  93a  :     0.046756 (c=  0.21623074)
    90a ->  92a  :     0.048251 (c= -0.21966179)
    91a ->  93a  :     0.321479 (c=  0.56699080)

STATE  5:  E=   0.167517 au      4.558 eV    36765.7 cm**-1 <S**2> =   0.000000
    86a ->  93a  :     0.042221 (c=  0.20547641)
    88a ->  92a  :     0.234137 (c= -0.48387726)
    89a ->  93a  :     0.013962 (c=  0.11816180)
    90a ->  92a  :     0.538561 (c=  0.73386703)
    91a ->  93a  :     0.128275 (c= -0.35815496)

STATE  6:  E=   0.174003 au      4.735 eV    38189.3 cm**-1 <S**2> =   0.000000
    81a ->  92a  :     0.016503 (c= -0.12846442)
    87a ->  92a  :     0.627155 (c=  0.79193132)
    87a ->  93a  :     0.141616 (c= -0.37631906)
    87a -> 100a  :     0.014091 (c= -0.11870731)
    87a -> 120a  :     0.026992 (c= -0.16429283)
    87a -> 122a  :     0.010983 (c= -0.10479862)
    87a -> 123a  :     0.012929 (c=  0.11370396)
    87a -> 124a  :     0.023927 (c=  0.15468463)

STATE  7:  E=   0.185184 au      5.039 eV    40643.2 cm**-1 <S**2> =   0.000000
    85a ->  92a  :     0.460404 (c=  0.67853110)
    85a ->  93a  :     0.180059 (c=  0.42433402)
    85a -> 101a  :     0.016949 (c=  0.13019016)
    85a -> 106a  :     0.031437 (c=  0.17730537)
    85a -> 121a  :     0.122833 (c= -0.35047539)
    85a -> 124a  :     0.046766 (c= -0.21625496)
    85a -> 133a  :     0.010568 (c= -0.10280072)

STATE  8:  E=   0.205393 au      5.589 eV    45078.5 cm**-1 <S**2> =   0.000000
    91a ->  94a  :     0.480383 (c= -0.69309696)
    91a ->  95a  :     0.097544 (c= -0.31231975)
    91a ->  96a  :     0.093179 (c= -0.30525196)
    91a ->  97a  :     0.027846 (c= -0.16686987)
    91a -> 102a  :     0.082782 (c= -0.28771918)
    91a -> 105a  :     0.019494 (c=  0.13961998)
    91a -> 115a  :     0.040692 (c= -0.20172284)

STATE  9:  E=   0.202368 au      5.507 eV    44414.6 cm**-1 <S**2> =   0.000000
    86a ->  92a  :     0.144070 (c= -0.37956593)
    90a ->  93a  :     0.247050 (c= -0.49704143)
    91a -> 100a  :     0.153507 (c=  0.39180022)
    91a -> 101a  :     0.074218 (c= -0.27242958)
    91a -> 106a  :     0.234330 (c= -0.48407631)
    91a -> 108a  :     0.033599 (c= -0.18330131)

STATE 10:  E=   0.212361 au      5.779 eV    46607.9 cm**-1 <S**2> =   0.000000
    89a -> 115a  :     0.017811 (c=  0.13345672)
    90a -> 104a  :     0.013064 (c= -0.11429890)
    90a -> 112a  :     0.011312 (c= -0.10635976)
    90a -> 113a  :     0.014544 (c=  0.12059877)
    90a -> 115a  :     0.015271 (c= -0.12357406)
    90a -> 128a  :     0.011529 (c= -0.10737536)
    91a ->  95a  :     0.012816 (c=  0.11320990)
    91a ->  96a  :     0.027438 (c=  0.16564414)
    91a -> 102a  :     0.116830 (c=  0.34180471)
    91a -> 104a  :     0.011789 (c= -0.10857863)
    91a -> 112a  :     0.033507 (c= -0.18304948)
    91a -> 113a  :     0.063245 (c=  0.25148588)
    91a -> 114a  :     0.022752 (c=  0.15083859)
    91a -> 115a  :     0.294092 (c= -0.54230229)
    91a -> 116a  :     0.035092 (c= -0.18732792)
    91a -> 128a  :     0.017974 (c= -0.13406716)


-----------------------------
TD-DFT/TDA-EXCITATION SPECTRA
-----------------------------

Center of mass = ( -0.2740, -0.1095,  0.0577)
Calculating the Dipole integrals                  ... done
Transforming integrals                            ... done
Calculating the Linear Momentum integrals         ... done
Transforming integrals                            ... done
Calculating angular momentum integrals            ... done
Transforming integrals                            ... done

-----------------------------------------------------------------------------
         ABSORPTION SPECTRUM VIA TRANSITION ELECTRIC DIPOLE MOMENTS
-----------------------------------------------------------------------------
State   Energy    Wavelength  fosc         T2        TX        TY        TZ  
        (cm-1)      (nm)                 (au**2)    (au)      (au)      (au) 
-----------------------------------------------------------------------------
   1   20446.4    489.1   1.964848619  31.63652  -5.50397  -0.38817  -1.09188
   2   32893.4    304.0   0.015548376   0.15561   0.38945   0.03343   0.05318
   3   33552.3    298.0   0.114242201   1.12093   1.05110  -0.08904   0.09050
   4   34929.4    286.3   0.003443782   0.03246   0.17666   0.02129   0.02821
   5   36765.7    272.0   0.000518230   0.00464   0.04075   0.04723   0.02736
   6   38189.3    261.9   0.000305657   0.00263   0.01174   0.02834  -0.04116
   7   40643.2    246.0   0.000821419   0.00665  -0.01576  -0.04588   0.06558
   8   45078.5    221.8   0.015846885   0.11573   0.00953   0.21092  -0.26674
   9   44414.6    225.2   0.162688726   1.20589  -1.07654   0.21637   0.01118
  10   46607.9    214.6   0.001769118   0.01250  -0.01842  -0.07110   0.08427

-----------------------------------------------------------------------------
         ABSORPTION SPECTRUM VIA TRANSITION VELOCITY DIPOLE MOMENTS
-----------------------------------------------------------------------------
State   Energy    Wavelength   fosc        P2         PX        PY        PZ  
        (cm-1)      (nm)                 (au**2)     (au)      (au)      (au) 
-----------------------------------------------------------------------------
   1   20446.4    489.1   1.375214417   0.19217   0.43545  -0.03257   0.03866
   2   32893.4    304.0   0.003232550   0.00073  -0.02512  -0.00687  -0.00695
   3   33552.3    298.0   0.060110538   0.01378  -0.11292  -0.01466  -0.02862
   4   34929.4    286.3   0.000853763   0.00020  -0.01418   0.00167   0.00026
   5   36765.7    272.0   0.000038782   0.00001   0.00037   0.00138   0.00278
   6   38189.3    261.9   0.001018647   0.00027   0.00128   0.01031  -0.01257
   7   40643.2    246.0   0.000021509   0.00001   0.00094  -0.00164   0.00155
   8   45078.5    221.8   0.017016655   0.00524  -0.00347  -0.04475   0.05681
   9   44414.6    225.2   0.104401592   0.03169   0.17321  -0.04055  -0.00671
  10   46607.9    214.6   0.000098058   0.00003   0.00187   0.00411  -0.00330

-------------------------------------------------------------------
                             CD SPECTRUM
-------------------------------------------------------------------
State  Energy     Wavelength     R         MX        MY        MZ   
       (cm-1)       (nm)     (1e40*cgs)   (au)      (au)      (au)  
-------------------------------------------------------------------
   1   20446.4    489.1      4.41243  -0.00029   0.02864  -0.01730
   2   32893.4    304.0     -3.54350  -0.03943  -0.20980   0.27927
   3   33552.3    298.0      1.23954   0.02527   0.11257  -0.15368
   4   34929.4    286.3     -4.05837  -0.09221  -0.49931   0.64922
   5   36765.7    272.0     -2.91507  -0.06023  -0.32798   0.42986
   6   38189.3    261.9      0.40209  -0.02233  -0.22232  -0.18017
   7   40643.2    246.0      0.96288  -0.30578  -0.02828  -0.06211
   8   45078.5    221.8      0.56520  -0.04204  -0.03198  -0.03128
   9   44414.6    225.2     -0.46100   0.00359   0.01359  -0.00431
  10   46607.9    214.6      0.52026  -0.02869  -0.15650  -0.12523

-------------------------------------------------------------------
         CD SPECTRUM VIA TRANSITION VELOCITY DIPOLE MOMENTS        
-------------------------------------------------------------------
State  Energy     Wavelength     R         MX        MY        MZ   
       (cm-1)       (nm)     (1e40*cgs)   (au)      (au)      (au)  
-------------------------------------------------------------------
   1   20446.4    489.1     -8.74020  -0.00029   0.02864  -0.01730
   2   32893.4    304.0      1.54556  -0.03943  -0.20980   0.27927
   3   33552.3    298.0     -0.32316   0.02527   0.11257  -0.15368
   4   34929.4    286.3      1.90751  -0.09221  -0.49931   0.64922
   5   36765.7    272.0      2.02603  -0.06023  -0.32798   0.42986
   6   38189.3    261.9     -0.15137  -0.02233  -0.22232  -0.18017
   7   40643.2    246.0     -0.85721  -0.30578  -0.02828  -0.06211
   8   45078.5    221.8     -0.45919  -0.04204  -0.03198  -0.03128
   9   44414.6    225.2      0.23419   0.00359   0.01359  -0.00431
  10   46607.9    214.6     -0.62801  -0.02869  -0.15650  -0.12523

Total run time:     9197.041 sec

           *** ORCA-CIS/TD-DFT FINISHED WITHOUT ERROR ***

Maximum memory used throughout the entire CIS-calculation: 2321.2 MB

-----------------------
CIS/TD-DFT TOTAL ENERGY
-----------------------

    E(SCF)  =  -1819.333033663 Eh
    DE(CIS) =      0.093160473 Eh (Root  1)
    ----------------------------- ---------
    E(tot)  =  -1819.239873191 Eh

  Warning: (DFTVDWD): Non-parameterized functional used for dispersion correction ! 

  Warning: (D3BJ): Non-parameterized functional used for dispersion correction !

Please define all necessary parameters (s6, s8, a1, and a2) in the %method block!
[file orca_tools/Tool-Misc/qcdftvdw.cpp, line 36127]: ERROR in DFT dispersion correction!

