
                                 *****************
                                 * O   R   C   A *
                                 *****************

                                            #,                                       
                                            ###                                      
                                            ####                                     
                                            #####                                    
                                            ######                                   
                                           ########,                                 
                                     ,,################,,,,,                         
                               ,,#################################,,                 
                          ,,##########################################,,             
                       ,#########################################, ''#####,          
                    ,#############################################,,   '####,        
                  ,##################################################,,,,####,       
                ,###########''''           ''''###############################       
              ,#####''   ,,,,##########,,,,          '''####'''          '####       
            ,##' ,,,,###########################,,,                        '##       
           ' ,,###''''                  '''############,,,                           
         ,,##''                                '''############,,,,        ,,,,,,###''
      ,#''                                            '''#######################'''  
     '                                                          ''''####''''         
             ,#######,   #######,   ,#######,      ##                                
            ,#'     '#,  ##    ##  ,#'     '#,    #''#        ######   ,####,        
            ##       ##  ##   ,#'  ##            #'  '#       #        #'  '#        
            ##       ##  #######   ##           ,######,      #####,   #    #        
            '#,     ,#'  ##    ##  '#,     ,#' ,#      #,         ##   #,  ,#        
             '#######'   ##     ##  '#######'  #'      '#     #####' # '####'        



                  #######################################################
                  #                        -***-                        #
                  #          Department of theory and spectroscopy      #
                  #    Directorship and core code : Frank Neese         #
                  #        Max Planck Institute fuer Kohlenforschung    #
                  #                Kaiser Wilhelm Platz 1               #
                  #                 D-45470 Muelheim/Ruhr               #
                  #                      Germany                        #
                  #                                                     #
                  #                  All rights reserved                #
                  #                        -***-                        #
                  #######################################################


                         Program Version 5.0.2 -  RELEASE  -


 With contributions from (in alphabetic order):
   Daniel Aravena         : Magnetic Suceptibility
   Michael Atanasov       : Ab Initio Ligand Field Theory (pilot matlab implementation)
   Alexander A. Auer      : GIAO ZORA, VPT2 properties, NMR spectrum
   Ute Becker             : Parallelization
   Giovanni Bistoni       : ED, misc. LED, open-shell LED, HFLD
   Martin Brehm           : Molecular dynamics
   Dmytro Bykov           : SCF Hessian
   Vijay G. Chilkuri      : MRCI spin determinant printing, contributions to CSF-ICE
   Dipayan Datta          : RHF DLPNO-CCSD density
   Achintya Kumar Dutta   : EOM-CC, STEOM-CC
   Dmitry Ganyushin       : Spin-Orbit,Spin-Spin,Magnetic field MRCI
   Miquel Garcia          : C-PCM and meta-GGA Hessian, CC/C-PCM, Gaussian charge scheme
   Yang Guo               : DLPNO-NEVPT2, F12-NEVPT2, CIM, IAO-localization
   Andreas Hansen         : Spin unrestricted coupled pair/coupled cluster methods
   Benjamin Helmich-Paris : MC-RPA, TRAH-SCF, COSX integrals
   Lee Huntington         : MR-EOM, pCC
   Robert Izsak           : Overlap fitted RIJCOSX, COSX-SCS-MP3, EOM
   Marcus Kettner         : VPT2
   Christian Kollmar      : KDIIS, OOCD, Brueckner-CCSD(T), CCSD density, CASPT2, CASPT2-K
   Simone Kossmann        : Meta GGA functionals, TD-DFT gradient, OOMP2, MP2 Hessian
   Martin Krupicka        : Initial AUTO-CI
   Lucas Lang             : DCDCAS
   Marvin Lechner         : AUTO-CI (C++ implementation), FIC-MRCC
   Dagmar Lenk            : GEPOL surface, SMD
   Dimitrios Liakos       : Extrapolation schemes; Compound Job, initial MDCI parallelization
   Dimitrios Manganas     : Further ROCIS development; embedding schemes
   Dimitrios Pantazis     : SARC Basis sets
   Anastasios Papadopoulos: AUTO-CI, single reference methods and gradients
   Taras Petrenko         : DFT Hessian,TD-DFT gradient, ASA, ECA, R-Raman, ABS, FL, XAS/XES, NRVS
   Peter Pinski           : DLPNO-MP2, DLPNO-MP2 Gradient
   Christoph Reimann      : Effective Core Potentials
   Marius Retegan         : Local ZFS, SOC
   Christoph Riplinger    : Optimizer, TS searches, QM/MM, DLPNO-CCSD(T), (RO)-DLPNO pert. Triples
   Tobias Risthaus        : Range-separated hybrids, TD-DFT gradient, RPA, STAB
   Michael Roemelt        : Original ROCIS implementation
   Masaaki Saitow         : Open-shell DLPNO-CCSD energy and density
   Barbara Sandhoefer     : DKH picture change effects
   Avijit Sen             : IP-ROCIS
   Kantharuban Sivalingam : CASSCF convergence, NEVPT2, FIC-MRCI
   Bernardo de Souza      : ESD, SOC TD-DFT
   Georgi Stoychev        : AutoAux, RI-MP2 NMR, DLPNO-MP2 response
   Willem Van den Heuvel  : Paramagnetic NMR
   Boris Wezisla          : Elementary symmetry handling
   Frank Wennmohs         : Technical directorship


 We gratefully acknowledge several colleagues who have allowed us to
 interface, adapt or use parts of their codes:
   Stefan Grimme, W. Hujo, H. Kruse, P. Pracht,  : VdW corrections, initial TS optimization,
                  C. Bannwarth, S. Ehlert          DFT functionals, gCP, sTDA/sTD-DF
   Ed Valeev, F. Pavosevic, A. Kumar             : LibInt (2-el integral package), F12 methods
   Garnet Chan, S. Sharma, J. Yang, R. Olivares  : DMRG
   Ulf Ekstrom                                   : XCFun DFT Library
   Mihaly Kallay                                 : mrcc  (arbitrary order and MRCC methods)
   Jiri Pittner, Ondrej Demel                    : Mk-CCSD
   Frank Weinhold                                : gennbo (NPA and NBO analysis)
   Christopher J. Cramer and Donald G. Truhlar   : smd solvation model
   Lars Goerigk                                  : TD-DFT with DH, B97 family of functionals
   V. Asgeirsson, H. Jonsson                     : NEB implementation
   FAccTs GmbH                                   : IRC, NEB, NEB-TS, DLPNO-Multilevel, CI-OPT
                                                   MM, QMMM, 2- and 3-layer-ONIOM, Crystal-QMMM,
                                                   LR-CPCM, SF, NACMEs, symmetry and pop. for TD-DFT,
                                                   nearIR, NL-DFT gradient (VV10), updates on ESD,
                                                   ML-optimized integration grids
   S Lehtola, MJT Oliveira, MAL Marques          : LibXC Library
   Liviu Ungur et al                             : ANISO software


 Your calculation uses the libint2 library for the computation of 2-el integrals
 For citations please refer to: http://libint.valeyev.net

 Your ORCA version has been built with support for libXC version: 5.1.0
 For citations please refer to: https://tddft.org/programs/libxc/

 This ORCA versions uses:
   CBLAS   interface :  Fast vector & matrix operations
   LAPACKE interface :  Fast linear algebra routines
   SCALAPACK package :  Parallel linear algebra routines
   Shared memory     :  Shared parallel matrices
   BLAS/LAPACK       :  OpenBLAS 0.3.15  USE64BITINT DYNAMIC_ARCH NO_AFFINITY SkylakeX SINGLE_THREADED
        Core in use  :  SkylakeX
   Copyright (c) 2011-2014, The OpenBLAS Project


Your calculation utilizes the SMD solvation module
Please cite in your paper:
A.V. Marenich, C.J. Cramer, D.G. Truhlar J. Phys. Chem. B, 113, (2009), 6378 

================================================================================

----- Orbital basis set information -----
Your calculation utilizes the basis: aug-cc-pVTZ 
    H, B-Ne : Obtained from the ccRepo (grant-hill.group.shef.ac.uk/ccrepo) Feb. 2017
              R. A. Kendall, T. H. Dunning, Jr., R. J. Harrison, J. Chem. Phys. 96, 6796 (1992)
         He : Obtained from the ccRepo (grant-hill.group.shef.ac.uk/ccrepo) Feb. 2017
              D. E. Woon, T. H. Dunning, Jr., J. Chem. Phys. 100, 2975 (1994)
  Li-Be, Na : Obtained from the ccRepo (grant-hill.group.shef.ac.uk/ccrepo) Feb. 2017
              B. P. Prascher, D. E. Woon, K. A. Peterson, T. H. Dunning, Jr., A. K. Wilson, Theor. Chem. Acc. 128, 69 (2011)
         Mg : Obtained from the Peterson Research Group Website (tyr0.chem.wsu.edu/~kipeters) Feb. 2017
              B. P. Prascher, D. E. Woon, K. A. Peterson, T. H. Dunning, Jr., A. K. Wilson, Theor. Chem. Acc. 128, 69 (2011)
      Al-Ar : Obtained from the ccRepo (grant-hill.group.shef.ac.uk/ccrepo) Feb. 2017
              D. E. Woon, T. H. Dunning, Jr., J. Chem. Phys. 98, 1358 (1993)
      Sc-Zn : Obtained from the ccRepo (grant-hill.group.shef.ac.uk/ccrepo) Feb. 2017
              N. B. Balabanov, K. A. Peterson, J. Chem. Phys. 123, 064107 (2005)
              N. B. Balabanov, K. A. Peterson, J. Chem. Phys. 125, 074110 (2006)
      Ga-Kr : Obtained from the ccRepo (grant-hill.group.shef.ac.uk/ccrepo) Feb. 2017
              A. K. Wilson, D. E. Woon, K. A. Peterson, T. H. Dunning, Jr., J. Chem. Phys. 110, 7667 (1999)
     Ag, Au : Obtained from the Peterson Research Group Website (tyr0.chem.wsu.edu/~kipeters) Feb. 2017
              K. A. Peterson, C. Puzzarini, Theor. Chem. Acc. 114, 283 (2005)

The basis set includes element-specific modifications.

Your calculation utilizes the basis: cc-pVTZ 
       H, B-Ne : Obtained from the ccRepo (grant-hill.group.shef.ac.uk/ccrepo) Feb. 2017
                 T. H. Dunning, Jr., J. Chem. Phys. 90, 1007 (1989)
            He : Obtained from the ccRepo (grant-hill.group.shef.ac.uk/ccrepo) Feb. 2017
                 D. E. Woon, T. H. Dunning, Jr., J. Chem. Phys. 100, 2975 (1994)
  Li-Be, Na-Mg : Obtained from the ccRepo (grant-hill.group.shef.ac.uk/ccrepo) Feb. 2017
                 B. P. Prascher, D. E. Woon, K. A. Peterson, T. H. Dunning, Jr., A. K. Wilson, Theor. Chem. Acc. 128, 69 (2011)
         Al-Ar : Obtained from the ccRepo (grant-hill.group.shef.ac.uk/ccrepo) Feb. 2017
                 D. E. Woon, T. H. Dunning, Jr., J. Chem. Phys. 98, 1358 (1993)
            Ca : Obtained from the Peterson Research Group Website (tyr0.chem.wsu.edu/~kipeters) Feb. 2017
                 J. Koput, K. A. Peterson, J. Phys. Chem. 106, 9595 (2002)
         Sc-Zn : Obtained from the ccRepo (grant-hill.group.shef.ac.uk/ccrepo) Feb. 2017
                 N. B. Balabanov, K. A. Peterson, J. Chem. Phys. 123, 064107 (2005)
                 N. B. Balabanov, K. A. Peterson, J. Chem. Phys. 125, 074110 (2006)
         Ga-Kr : Obtained from the ccRepo (grant-hill.group.shef.ac.uk/ccrepo) Feb. 2017
                 A. K. Wilson, D. E. Woon, K. A. Peterson, T. H. Dunning, Jr., J. Chem. Phys. 110, 7667 (1999)
             Y : Obtained from the ccRepo (grant-hill.group.shef.ac.uk/ccrepo) Feb. 2017
                 K. A. Peterson, D. Figgen, M. Dolg, H. Stoll, J. Chem. Phys. 126, 124101 (2007)
        Ag, Au : Obtained from the Peterson Research Group Website (tyr0.chem.wsu.edu/~kipeters) Feb. 2017
                 K. A. Peterson, C. Puzzarini, Theor. Chem. Acc. 114, 283 (2005)

----- AuxJ basis set information -----
Your calculation utilizes the auxiliary basis: aug-cc-pVTZ/JK 
  H, B-F, Al-Cl, Ga-Br : Obtained from the TURBOMOLE 7.0 basis set library

The basis set includes element-specific modifications.

Your calculation utilizes the auxiliary basis: cc-pVTZ/JK 
  H, B-F, Al-Cl, Ga-Br : Obtained from the TURBOMOLE 7.0 basis set library

----- AuxC basis set information -----
Your calculation utilizes the auxiliary basis: aug-cc-pVTZ/C 
  H-He, B-F, Al-Ar, Ga-Kr : Obtained from the EMSL Basis Set Exchange (bse.pnl.gov) Feb. 2017
                            F. Weigend, A. Kohn, C. Hattig, J. Chem. Phys. 116, 3175 (2002)
                   Be, Mg : Obtained from the TURBOMOLE 7.0 basis set library
                            C. Haettig, Phys. Chem. Chem. Phys. 7, 59 (2005)
                       Ne : Obtained from the EMSL Basis Set Exchange (bse.pnl.gov) Feb. 2017
                            C. Haettig, Phys. Chem. Chem. Phys. 7, 59 (2005)
                            F. Weigend, A. Kohn, C. Hattig, J. Chem. Phys. 116, 3175 (2002)
                    Sc-Zn : Obtained from the EMSL Basis Set Exchange (bse.pnl.gov) Feb. 2017
                            J. G. Hill, J. A. Platts, J. Chem. Phys. 128, 044104 (2008)

The basis set includes element-specific modifications.

Your calculation utilizes the auxiliary basis: cc-pVTZ/C 
  Obtained from the EMSL Basis Set Exchange (bse.pnl.gov) Feb. 2017
  H-He, B-F, Al-Ar, Ga-Kr : F. Weigend, A. Kohn, C. Hattig, J. Chem. Phys. 116, 3175 (2002)
             Li-Be, Na-Mg : C. Haettig, Phys. Chem. Chem. Phys. 7, 59 (2005)
                       Ne : C. Haettig, Phys. Chem. Chem. Phys. 7, 59 (2005)
                            F. Weigend, A. Kohn, C. Hattig, J. Chem. Phys. 116, 3175 (2002)
                    Sc-Zn : J. G. Hill, J. A. Platts, J. Chem. Phys. 128, 044104 (2008)

================================================================================
                                        WARNINGS
                       Please study these warnings very carefully!
================================================================================


WARNING: Geometry Optimization
  ===> : Switching off AutoStart
         For restart on a previous wavefunction, please use MOREAD

INFO   : the flag for use of the SHARK integral package has been found!



***************************************
The coordinates will be read from file: 
***************************************


Your calculation utilizes the SMD solvation module
Please cite in your paper:
A.V. Marenich, C.J. Cramer, D.G. Truhlar J. Phys. Chem. B, 113, (2009), 6378 

================================================================================

----- Orbital basis set information -----
Your calculation utilizes the basis: aug-cc-pVTZ 
    H, B-Ne : Obtained from the ccRepo (grant-hill.group.shef.ac.uk/ccrepo) Feb. 2017
              R. A. Kendall, T. H. Dunning, Jr., R. J. Harrison, J. Chem. Phys. 96, 6796 (1992)
         He : Obtained from the ccRepo (grant-hill.group.shef.ac.uk/ccrepo) Feb. 2017
              D. E. Woon, T. H. Dunning, Jr., J. Chem. Phys. 100, 2975 (1994)
  Li-Be, Na : Obtained from the ccRepo (grant-hill.group.shef.ac.uk/ccrepo) Feb. 2017
              B. P. Prascher, D. E. Woon, K. A. Peterson, T. H. Dunning, Jr., A. K. Wilson, Theor. Chem. Acc. 128, 69 (2011)
         Mg : Obtained from the Peterson Research Group Website (tyr0.chem.wsu.edu/~kipeters) Feb. 2017
              B. P. Prascher, D. E. Woon, K. A. Peterson, T. H. Dunning, Jr., A. K. Wilson, Theor. Chem. Acc. 128, 69 (2011)
      Al-Ar : Obtained from the ccRepo (grant-hill.group.shef.ac.uk/ccrepo) Feb. 2017
              D. E. Woon, T. H. Dunning, Jr., J. Chem. Phys. 98, 1358 (1993)
      Sc-Zn : Obtained from the ccRepo (grant-hill.group.shef.ac.uk/ccrepo) Feb. 2017
              N. B. Balabanov, K. A. Peterson, J. Chem. Phys. 123, 064107 (2005)
              N. B. Balabanov, K. A. Peterson, J. Chem. Phys. 125, 074110 (2006)
      Ga-Kr : Obtained from the ccRepo (grant-hill.group.shef.ac.uk/ccrepo) Feb. 2017
              A. K. Wilson, D. E. Woon, K. A. Peterson, T. H. Dunning, Jr., J. Chem. Phys. 110, 7667 (1999)
     Ag, Au : Obtained from the Peterson Research Group Website (tyr0.chem.wsu.edu/~kipeters) Feb. 2017
              K. A. Peterson, C. Puzzarini, Theor. Chem. Acc. 114, 283 (2005)

The basis set includes element-specific modifications.

Your calculation utilizes the basis: cc-pVTZ 
       H, B-Ne : Obtained from the ccRepo (grant-hill.group.shef.ac.uk/ccrepo) Feb. 2017
                 T. H. Dunning, Jr., J. Chem. Phys. 90, 1007 (1989)
            He : Obtained from the ccRepo (grant-hill.group.shef.ac.uk/ccrepo) Feb. 2017
                 D. E. Woon, T. H. Dunning, Jr., J. Chem. Phys. 100, 2975 (1994)
  Li-Be, Na-Mg : Obtained from the ccRepo (grant-hill.group.shef.ac.uk/ccrepo) Feb. 2017
                 B. P. Prascher, D. E. Woon, K. A. Peterson, T. H. Dunning, Jr., A. K. Wilson, Theor. Chem. Acc. 128, 69 (2011)
         Al-Ar : Obtained from the ccRepo (grant-hill.group.shef.ac.uk/ccrepo) Feb. 2017
                 D. E. Woon, T. H. Dunning, Jr., J. Chem. Phys. 98, 1358 (1993)
            Ca : Obtained from the Peterson Research Group Website (tyr0.chem.wsu.edu/~kipeters) Feb. 2017
                 J. Koput, K. A. Peterson, J. Phys. Chem. 106, 9595 (2002)
         Sc-Zn : Obtained from the ccRepo (grant-hill.group.shef.ac.uk/ccrepo) Feb. 2017
                 N. B. Balabanov, K. A. Peterson, J. Chem. Phys. 123, 064107 (2005)
                 N. B. Balabanov, K. A. Peterson, J. Chem. Phys. 125, 074110 (2006)
         Ga-Kr : Obtained from the ccRepo (grant-hill.group.shef.ac.uk/ccrepo) Feb. 2017
                 A. K. Wilson, D. E. Woon, K. A. Peterson, T. H. Dunning, Jr., J. Chem. Phys. 110, 7667 (1999)
             Y : Obtained from the ccRepo (grant-hill.group.shef.ac.uk/ccrepo) Feb. 2017
                 K. A. Peterson, D. Figgen, M. Dolg, H. Stoll, J. Chem. Phys. 126, 124101 (2007)
        Ag, Au : Obtained from the Peterson Research Group Website (tyr0.chem.wsu.edu/~kipeters) Feb. 2017
                 K. A. Peterson, C. Puzzarini, Theor. Chem. Acc. 114, 283 (2005)

----- AuxJ basis set information -----
Your calculation utilizes the auxiliary basis: aug-cc-pVTZ/JK 
  H, B-F, Al-Cl, Ga-Br : Obtained from the TURBOMOLE 7.0 basis set library

The basis set includes element-specific modifications.

Your calculation utilizes the auxiliary basis: cc-pVTZ/JK 
  H, B-F, Al-Cl, Ga-Br : Obtained from the TURBOMOLE 7.0 basis set library

----- AuxC basis set information -----
Your calculation utilizes the auxiliary basis: aug-cc-pVTZ/C 
  H-He, B-F, Al-Ar, Ga-Kr : Obtained from the EMSL Basis Set Exchange (bse.pnl.gov) Feb. 2017
                            F. Weigend, A. Kohn, C. Hattig, J. Chem. Phys. 116, 3175 (2002)
                   Be, Mg : Obtained from the TURBOMOLE 7.0 basis set library
                            C. Haettig, Phys. Chem. Chem. Phys. 7, 59 (2005)
                       Ne : Obtained from the EMSL Basis Set Exchange (bse.pnl.gov) Feb. 2017
                            C. Haettig, Phys. Chem. Chem. Phys. 7, 59 (2005)
                            F. Weigend, A. Kohn, C. Hattig, J. Chem. Phys. 116, 3175 (2002)
                    Sc-Zn : Obtained from the EMSL Basis Set Exchange (bse.pnl.gov) Feb. 2017
                            J. G. Hill, J. A. Platts, J. Chem. Phys. 128, 044104 (2008)

The basis set includes element-specific modifications.

Your calculation utilizes the auxiliary basis: cc-pVTZ/C 
  Obtained from the EMSL Basis Set Exchange (bse.pnl.gov) Feb. 2017
  H-He, B-F, Al-Ar, Ga-Kr : F. Weigend, A. Kohn, C. Hattig, J. Chem. Phys. 116, 3175 (2002)
             Li-Be, Na-Mg : C. Haettig, Phys. Chem. Chem. Phys. 7, 59 (2005)
                       Ne : C. Haettig, Phys. Chem. Chem. Phys. 7, 59 (2005)
                            F. Weigend, A. Kohn, C. Hattig, J. Chem. Phys. 116, 3175 (2002)
                    Sc-Zn : J. G. Hill, J. A. Platts, J. Chem. Phys. 128, 044104 (2008)

================================================================================
                                        WARNINGS
                       Please study these warnings very carefully!
================================================================================

INFO   : Checking CIS options ...

INFO   : the flag for use of the SHARK integral package has been found!

================================================================================
                                       INPUT FILE
================================================================================
NAME = pbe0-train-6.inp
|  1> ! pbe0 aug-cc-PVTZ RIJCOSX Opt
|  2> %maxcore 4000
|  3> %basis
|  4>  AuxJ "aug-cc-PVTZ/JK"
|  5>  AuxC "aug-cc-PVTZ/C"
|  6>  newGTO H "cc-PVTZ" end
|  7>  newAuxJGTO H "cc-PVTZ/JK" end
|  8>  newAuxCGTO H "cc-PVTZ/C" end
|  9> end
| 10> %cpcm
| 11>  SMD true
| 12>  SMDsolvent "toluene"
| 13> end
| 14> %pal nprocs 4 end
| 15> * xyz 0 1
| 16> C         -5.31150        2.61790        1.32570
| 17> O         -4.65010        1.57880        0.62110
| 18> C         -5.43770        0.76910       -0.11470
| 19> O         -6.63310        0.89650       -0.19020
| 20> C         -4.64760       -0.26950       -0.79620
| 21> C         -5.35990       -1.18080       -1.59740
| 22> N         -5.92160       -1.93440       -2.25580
| 23> C         -3.28260       -0.38980       -0.68930
| 24> C         -2.48560       -1.38640       -1.33270
| 25> C         -1.16260       -1.28720       -1.06210
| 26> C         -0.83540       -0.21040       -0.19360
| 27> C          0.41760        0.12990        0.25070
| 28> C          0.74620        1.20760        1.11690
| 29> C          2.07100        1.29910        1.38500
| 30> C          2.84920        0.29380        0.74020
| 31> C          4.21240        0.11950        0.81350
| 32> C          5.03340        0.96040        1.57580
| 33> N          5.69720        1.65530        2.20440
| 34> C          4.78920       -0.99170        0.05580
| 35> O          4.09660       -1.73700       -0.61280
| 36> O          6.10900       -1.09560        0.17300
| 37> C          6.71900       -2.15840       -0.54510
| 38> S          1.86150       -0.76880       -0.21460
| 39> S         -2.28500        0.67120        0.26550
| 40> H         -6.03230        2.19710        2.02970
| 41> H         -4.53570        3.16730        1.85220
| 42> H         -5.84090        3.26980        0.62790
| 43> H         -2.93840       -2.12910       -1.96550
| 44> H         -0.39970       -1.94040       -1.44770
| 45> H         -0.01040        1.86800        1.50330
| 46> H          2.53440        2.03820        2.01450
| 47> H          7.78330       -2.08840       -0.33750
| 48> H          6.32330       -3.11920       -0.20950
| 49> H          6.52710       -2.05250       -1.61490
| 50> *
| 51> 
| 52> 
| 53> $new_job
| 54> ! pbe0 aug-cc-PVTZ RIJCOSX SP
| 55> %maxcore 4000
| 56> %basis
| 57>  AuxJ "aug-cc-PVTZ/JK"
| 58>  AuxC "aug-cc-PVTZ/C"
| 59>  newGTO H "cc-PVTZ" end
| 60>  newAuxJGTO H "cc-PVTZ/JK" end
| 61>  newAuxCGTO H "cc-PVTZ/C" end
| 62> end
| 63> %cpcm
| 64>  SMD true
| 65>  SMDsolvent "toluene"
| 66> end
| 67> %pal nprocs 4 end
| 68> %tddft
| 69>  nroots 10
| 70>  maxdim 7
| 71> end
| 72> * xyzfile 0 1
| 73> 
| 74>                          ****END OF INPUT****
================================================================================


                 $$$$$$$$$$$$$$$$$$$$$$$$$$$$$$$$$$$$$$$$$$$$$$ 
                 $ THERE ARE  2 JOBS TO BE PROCESSED THIS RUN $
                 $$$$$$$$$$$$$$$$$$$$$$$$$$$$$$$$$$$$$$$$$$$$$$ 




                 $$$$$$$$$$$$$$$$  JOB NUMBER  1 $$$$$$$$$$$$$$


                       *****************************
                       * Geometry Optimization Run *
                       *****************************

Geometry optimization settings:
Update method            Update   .... BFGS
Choice of coordinates    CoordSys .... Z-matrix Internals
Initial Hessian          InHess   .... Almoef's Model

Convergence Tolerances:
Energy Change            TolE     ....  5.0000e-06 Eh
Max. Gradient            TolMAXG  ....  3.0000e-04 Eh/bohr
RMS Gradient             TolRMSG  ....  1.0000e-04 Eh/bohr
Max. Displacement        TolMAXD  ....  4.0000e-03 bohr
RMS Displacement         TolRMSD  ....  2.0000e-03 bohr
Strict Convergence                ....  False
------------------------------------------------------------------------------
                        ORCA OPTIMIZATION COORDINATE SETUP
------------------------------------------------------------------------------

The optimization will be done in new redundant internal coordinates
Making redundant internal coordinates   ...  (new redundants) done
Evaluating the initial hessian          ...  (Almloef) done
Evaluating the coordinates              ...  done
Calculating the B-matrix                .... done
Calculating the G-matrix                .... done
Diagonalizing the G-matrix              .... done
Small eigenvalue found = 1.655e-03
Small eigenvalue found = 3.776e-03
Small eigenvalue found = 6.630e-03
Small eigenvalue found = 1.828e-02
Small eigenvalue found = 2.075e-02
The first mode is                       ....   57
The number of degrees of freedom        ....   96

    -----------------------------------------------------------------
                    Redundant Internal Coordinates


    -----------------------------------------------------------------
         Definition                    Initial Value    Approx d2E/dq
    -----------------------------------------------------------------
      1. B(O   1,C   0)                  1.4190         0.502995   
      2. B(C   2,O   1)                  1.3481         0.652755   
      3. B(O   3,C   2)                  1.2045         1.106033   
      4. B(C   4,C   2)                  1.4722         0.461939   
      5. B(C   5,C   4)                  1.4070         0.586885   
      6. B(N   6,C   5)                  1.1476         1.363520   
      7. B(C   7,C   4)                  1.3745         0.661516   
      8. B(C   8,C   7)                  1.4291         0.541159   
      9. B(C   9,C   8)                  1.3540         0.713064   
     10. B(C  10,C   9)                  1.4216         0.556387   
     11. B(C  11,C  10)                  1.3723         0.666765   
     12. B(C  12,C  11)                  1.4212         0.557202   
     13. B(C  13,C  12)                  1.3547         0.711180   
     14. B(C  14,C  13)                  1.4255         0.548446   
     15. B(C  15,C  14)                  1.3763         0.657164   
     16. B(C  16,C  15)                  1.4008         0.600481   
     17. B(N  17,C  16)                  1.1483         1.359721   
     18. B(C  18,C  15)                  1.4634         0.477106   
     19. B(O  19,C  18)                  1.2175         1.054782   
     20. B(O  20,C  18)                  1.3291         0.700003   
     21. B(C  21,O  20)                  1.4203         0.500611   
     22. B(S  22,C  14)                  1.7368         0.471284   
     23. B(S  22,C  11)                  1.7632         0.427589   
     24. B(S  23,C  10)                  1.7576         0.436461   
     25. B(S  23,C   7)                  1.7414         0.463261   
     26. B(H  24,C   0)                  1.0919         0.357598   
     27. B(H  25,C   0)                  1.0867         0.364497   
     28. B(H  26,C   0)                  1.0919         0.357645   
     29. B(H  27,C   8)                  1.0757         0.379564   
     30. B(H  28,C   9)                  1.0758         0.379365   
     31. B(H  29,C  12)                  1.0760         0.379040   
     32. B(H  30,C  13)                  1.0758         0.379427   
     33. B(H  31,C  21)                  1.0866         0.364606   
     34. B(H  32,C  21)                  1.0919         0.357537   
     35. B(H  33,C  21)                  1.0920         0.357435   
     36. A(O   1,C   0,H  25)          106.1428         0.339323   
     37. A(O   1,C   0,H  26)          110.2341         0.338250   
     38. A(O   1,C   0,H  24)          110.2199         0.338243   
     39. A(H  24,C   0,H  25)          110.7159         0.291076   
     40. A(H  25,C   0,H  26)          110.7279         0.291082   
     41. A(H  24,C   0,H  26)          108.7885         0.290209   
     42. A(C   0,O   1,C   2)          116.0098         0.416513   
     43. A(O   1,C   2,C   4)          111.2749         0.412927   
     44. A(O   3,C   2,C   4)          125.3245         0.453991   
     45. A(O   1,C   2,O   3)          123.4006         0.480455   
     46. A(C   2,C   4,C   5)          116.6679         0.407845   
     47. A(C   5,C   4,C   7)          119.3641         0.434842   
     48. A(C   2,C   4,C   7)          123.9680         0.416601   
     49. L(C   4,C   5,N   6,C   2, 1) 181.1187         0.493005   
     50. L(C   4,C   5,N   6,C   2, 2) 180.0151         0.493005   
     51. A(C   8,C   7,S  23)          110.6244         0.424238   
     52. A(C   4,C   7,C   8)          125.4414         0.428550   
     53. A(C   4,C   7,S  23)          123.9342         0.439827   
     54. A(C   7,C   8,C   9)          113.8186         0.434366   
     55. A(C   7,C   8,H  27)          120.7693         0.347976   
     56. A(C   9,C   8,H  27)          125.4120         0.364661   
     57. A(C  10,C   9,H  28)          121.0424         0.349577   
     58. A(C   8,C   9,C  10)          113.7336         0.436542   
     59. A(C   8,C   9,H  28)          125.2239         0.364628   
     60. A(C   9,C  10,C  11)          126.5694         0.431302   
     61. A(C  11,C  10,S  23)          122.9626         0.435747   
     62. A(C   9,C  10,S  23)          110.4680         0.421830   
     63. A(C  10,C  11,C  12)          126.6193         0.431415   
     64. A(C  10,C  11,S  22)          122.4030         0.434139   
     65. A(C  12,C  11,S  22)          110.9776         0.420397   
     66. A(C  11,C  12,C  13)          113.4496         0.436450   
     67. A(C  13,C  12,H  29)          125.1046         0.364410   
     68. A(C  11,C  12,H  29)          121.4458         0.349613   
     69. A(C  14,C  13,H  30)          120.9345         0.348740   
     70. A(C  12,C  13,H  30)          125.6931         0.364474   
     71. A(C  12,C  13,C  14)          113.3724         0.435206   
     72. A(C  15,C  14,S  22)          121.0045         0.440667   
     73. A(C  13,C  14,S  22)          111.6969         0.426564   
     74. A(C  13,C  14,C  15)          127.2987         0.429072   
     75. A(C  16,C  15,C  18)          120.4358         0.411854   
     76. A(C  14,C  15,C  18)          117.3226         0.418513   
     77. A(C  14,C  15,C  16)          122.2416         0.436120   
     78. L(C  15,C  16,N  17,C  18, 2) 180.0676         0.494848   
     79. L(C  15,C  16,N  17,C  18, 1) 180.5672         0.494848   
     80. A(O  19,C  18,O  20)          124.4369         0.482448   
     81. A(C  15,C  18,O  20)          113.8976         0.420506   
     82. A(C  15,C  18,O  19)          121.6654         0.452742   
     83. A(C  18,O  20,C  21)          116.1295         0.421377   
     84. A(H  32,C  21,H  33)          108.8284         0.290175   
     85. A(O  20,C  21,H  33)          110.3201         0.337949   
     86. A(H  31,C  21,H  32)          110.6650         0.291081   
     87. A(O  20,C  21,H  32)          110.3276         0.337965   
     88. A(O  20,C  21,H  31)          106.0134         0.339071   
     89. A(H  31,C  21,H  33)          110.6732         0.291068   
     90. A(C  11,S  22,C  14)           90.5035         0.430470   
     91. A(C   7,S  23,C  10)           91.3553         0.430731   
     92. D(C   2,O   1,C   0,H  25)   -179.6820         0.020010   
     93. D(C   2,O   1,C   0,H  24)     60.3809         0.020010   
     94. D(C   2,O   1,C   0,H  26)    -59.7229         0.020010   
     95. D(C   4,C   2,O   1,C   0)   -179.8596         0.031512   
     96. D(O   3,C   2,O   1,C   0)      0.0977         0.031512   
     97. D(C   5,C   4,C   2,O   3)     -0.0122         0.014535   
     98. D(C   7,C   4,C   2,O   3)   -179.9447         0.014535   
     99. D(C   5,C   4,C   2,O   1)    179.9441         0.014535   
    100. D(C   7,C   4,C   2,O   1)      0.0116         0.014535   
    101. D(S  23,C   7,C   4,C   2)     -0.1488         0.030546   
    102. D(C   8,C   7,C   4,C   5)     -0.1197         0.030546   
    103. D(S  23,C   7,C   4,C   5)    179.9204         0.030546   
    104. D(C   8,C   7,C   4,C   2)    179.8111         0.030546   
    105. D(C   9,C   8,C   7,S  23)      0.0582         0.020013   
    106. D(C   9,C   8,C   7,C   4)   -179.9062         0.020013   
    107. D(H  27,C   8,C   7,S  23)   -179.9841         0.020013   
    108. D(H  27,C   8,C   7,C   4)      0.0515         0.020013   
    109. D(H  28,C   9,C   8,H  27)      0.0099         0.035925   
    110. D(H  28,C   9,C   8,C   7)    179.9653         0.035925   
    111. D(C  10,C   9,C   8,H  27)    179.9851         0.035925   
    112. D(C  10,C   9,C   8,C   7)     -0.0596         0.035925   
    113. D(S  23,C  10,C   9,H  28)   -179.9899         0.021195   
    114. D(S  23,C  10,C   9,C   8)      0.0337         0.021195   
    115. D(C  11,C  10,C   9,H  28)     -0.0384         0.021195   
    116. D(C  11,C  10,C   9,C   8)    179.9853         0.021195   
    117. D(S  22,C  11,C  10,S  23)    179.7664         0.031069   
    118. D(S  22,C  11,C  10,C   9)     -0.1795         0.031069   
    119. D(C  12,C  11,C  10,S  23)     -0.1808         0.031069   
    120. D(C  12,C  11,C  10,C   9)    179.8733         0.031069   
    121. D(C  13,C  12,C  11,S  22)     -0.0190         0.021259   
    122. D(C  13,C  12,C  11,C  10)    179.9333         0.021259   
    123. D(H  29,C  12,C  11,S  22)    179.9472         0.021259   
    124. D(H  29,C  12,C  11,C  10)     -0.1006         0.021259   
    125. D(H  30,C  13,C  12,H  29)      0.0217         0.035719   
    126. D(H  30,C  13,C  12,C  11)    179.9865         0.035719   
    127. D(C  14,C  13,C  12,H  29)   -179.9814         0.035719   
    128. D(C  14,C  13,C  12,C  11)     -0.0167         0.035719   
    129. D(S  22,C  14,C  13,H  30)   -179.9574         0.020573   
    130. D(S  22,C  14,C  13,C  12)      0.0456         0.020573   
    131. D(C  15,C  14,C  13,H  30)      0.0300         0.020573   
    132. D(C  15,C  14,C  13,C  12)   -179.9670         0.020573   
    133. D(C  18,C  15,C  14,S  22)      0.0655         0.030116   
    134. D(C  18,C  15,C  14,C  13)   -179.9208         0.030116   
    135. D(C  16,C  15,C  14,S  22)   -179.9704         0.030116   
    136. D(C  16,C  15,C  14,C  13)      0.0433         0.030116   
    137. D(O  20,C  18,C  15,C  16)     -0.0791         0.015498   
    138. D(O  20,C  18,C  15,C  14)    179.8856         0.015498   
    139. D(O  19,C  18,C  15,C  16)    179.9227         0.015498   
    140. D(O  19,C  18,C  15,C  14)     -0.1126         0.015498   
    141. D(C  21,O  20,C  18,O  19)      0.0716         0.036695   
    142. D(C  21,O  20,C  18,C  15)   -179.9265         0.036695   
    143. D(H  33,C  21,O  20,C  18)     59.9651         0.019814   
    144. D(H  32,C  21,O  20,C  18)    -60.3128         0.019814   
    145. D(H  31,C  21,O  20,C  18)    179.8289         0.019814   
    146. D(C  11,S  22,C  14,C  15)    179.9651         0.004773   
    147. D(C  11,S  22,C  14,C  13)     -0.0466         0.004773   
    148. D(C  14,S  22,C  11,C  12)      0.0375         0.004172   
    149. D(C  14,S  22,C  11,C  10)   -179.9171         0.004172   
    150. D(C   7,S  23,C  10,C  11)   -179.9533         0.004288   
    151. D(C   7,S  23,C  10,C   9)      0.0003         0.004288   
    152. D(C  10,S  23,C   7,C   8)     -0.0317         0.004658   
    153. D(C  10,S  23,C   7,C   4)    179.9334         0.004658   
    -----------------------------------------------------------------

Number of atoms                         .... 34
Number of degrees of freedom            .... 153

         *************************************************************
         *                GEOMETRY OPTIMIZATION CYCLE   1            *
         *************************************************************
---------------------------------
CARTESIAN COORDINATES (ANGSTROEM)
---------------------------------
  C     -5.311500    2.617900    1.325700
  O     -4.650100    1.578800    0.621100
  C     -5.437700    0.769100   -0.114700
  O     -6.633100    0.896500   -0.190200
  C     -4.647600   -0.269500   -0.796200
  C     -5.359900   -1.180800   -1.597400
  N     -5.921600   -1.934400   -2.255800
  C     -3.282600   -0.389800   -0.689300
  C     -2.485600   -1.386400   -1.332700
  C     -1.162600   -1.287200   -1.062100
  C     -0.835400   -0.210400   -0.193600
  C      0.417600    0.129900    0.250700
  C      0.746200    1.207600    1.116900
  C      2.071000    1.299100    1.385000
  C      2.849200    0.293800    0.740200
  C      4.212400    0.119500    0.813500
  C      5.033400    0.960400    1.575800
  N      5.697200    1.655300    2.204400
  C      4.789200   -0.991700    0.055800
  O      4.096600   -1.737000   -0.612800
  O      6.109000   -1.095600    0.173000
  C      6.719000   -2.158400   -0.545100
  S      1.861500   -0.768800   -0.214600
  S     -2.285000    0.671200    0.265500
  H     -6.032300    2.197100    2.029700
  H     -4.535700    3.167300    1.852200
  H     -5.840900    3.269800    0.627900
  H     -2.938400   -2.129100   -1.965500
  H     -0.399700   -1.940400   -1.447700
  H     -0.010400    1.868000    1.503300
  H      2.534400    2.038200    2.014500
  H      7.783300   -2.088400   -0.337500
  H      6.323300   -3.119200   -0.209500
  H      6.527100   -2.052500   -1.614900

----------------------------
CARTESIAN COORDINATES (A.U.)
----------------------------
  NO LB      ZA    FRAG     MASS         X           Y           Z
   0 C     6.0000    0    12.011  -10.037280    4.947114    2.505210
   1 O     8.0000    0    15.999   -8.787415    2.983500    1.173709
   2 C     6.0000    0    12.011  -10.275764    1.453388   -0.216752
   3 O     8.0000    0    15.999  -12.534742    1.694139   -0.359426
   4 C     6.0000    0    12.011   -8.782691   -0.509281   -1.504600
   5 C     6.0000    0    12.011  -10.128743   -2.231389   -3.018649
   6 N     7.0000    0    14.007  -11.190202   -3.655486   -4.262844
   7 C     6.0000    0    12.011   -6.203215   -0.736615   -1.302588
   8 C     6.0000    0    12.011   -4.697103   -2.619916   -2.518438
   9 C     6.0000    0    12.011   -2.196996   -2.432455   -2.007078
  10 C     6.0000    0    12.011   -1.578677   -0.397598   -0.365851
  11 C     6.0000    0    12.011    0.789150    0.245475    0.473754
  12 C     6.0000    0    12.011    1.410114    2.282033    2.110635
  13 C     6.0000    0    12.011    3.913623    2.454943    2.617271
  14 C     6.0000    0    12.011    5.384208    0.555202    1.398775
  15 C     6.0000    0    12.011    7.960282    0.225822    1.537292
  16 C     6.0000    0    12.011    9.511748    1.814893    2.977830
  17 N     7.0000    0    14.007   10.766148    3.128064    4.165712
  18 C     6.0000    0    12.011    9.050276   -1.874041    0.105447
  19 O     8.0000    0    15.999    7.741452   -3.282454   -1.158024
  20 O     8.0000    0    15.999   11.544337   -2.070384    0.326923
  21 C     6.0000    0    12.011   12.697070   -4.078785   -1.030090
  22 S    16.0000    0    32.060    3.517725   -1.452821   -0.405535
  23 S    16.0000    0    32.060   -4.318024    1.268384    0.501722
  24 H     1.0000    0     1.008  -11.399395    4.151917    3.835577
  25 H     1.0000    0     1.008   -8.571231    5.985330    3.500151
  26 H     1.0000    0     1.008  -11.037701    6.179027    1.186559
  27 H     1.0000    0     1.008   -5.552771   -4.023416   -3.714257
  28 H     1.0000    0     1.008   -0.755324   -3.666825   -2.735757
  29 H     1.0000    0     1.008   -0.019653    3.530008    2.840825
  30 H     1.0000    0     1.008    4.789322    3.851640    3.806853
  31 H     1.0000    0     1.008   14.708305   -3.946504   -0.637783
  32 H     1.0000    0     1.008   11.949305   -5.894434   -0.395898
  33 H     1.0000    0     1.008   12.334431   -3.878663   -3.051719

--------------------------------
INTERNAL COORDINATES (ANGSTROEM)
--------------------------------
 C      0   0   0     0.000000000000     0.00000000     0.00000000
 O      1   0   0     1.419027811567     0.00000000     0.00000000
 C      2   1   0     1.348083636129   116.00983956     0.00000000
 O      3   2   1     1.204538156307   123.40057175     0.09770678
 C      3   2   1     1.472205902719   111.27491516   180.14041460
 C      5   3   2     1.407039594326   116.66789833   179.94407210
 N      6   5   3     1.147567170147   178.88128524   180.40353640
 C      5   3   2     1.374454328088   123.96797581     0.00000000
 C      8   5   3     1.429120050940   125.44143313   179.81106810
 C      9   8   5     1.354028803239   113.81864005   180.09380971
 C     10   9   8     1.421566153930   113.73363373   359.94044803
 C     11  10   9     1.372303020473   126.56942426   179.98527685
 C     12  11  10     1.421167720573   126.61934751   179.87330763
 C     13  12  11     1.354749017346   113.44955798   179.93327545
 C     14  13  12     1.425478996688   113.37235999     0.00000000
 C     15  14  13     1.376251292461   127.29866565   180.03295495
 C     16  15  14     1.400805161327   122.24159761     0.04327516
 N     17  16  15     1.148326787112   179.43179271     3.43914765
 C     16  15  14     1.463411415153   117.32261351   180.07921738
 O     19  16  15     1.217453411840   121.66542487   359.88743277
 O     19  16  15     1.329060980542   113.89763110   179.88563077
 C     21  19  16     1.420320896840   116.12945843   180.07346017
 S     15  14  13     1.736753606589   111.69687385     0.04558049
 S      8   5   3     1.741427517871   123.93415051   359.85119078
 H      1   2   3     1.091898017216   110.21992254    60.38090407
 H      1   2   3     1.086696024655   106.14276601   180.31796191
 H      1   2   3     1.091862083782   110.23410837   300.27711547
 H      9   8   5     1.075670474634   120.76930895     0.05147593
 H     10   9   8     1.075813185456   125.22394084   179.96527464
 H     13  12  11     1.076046783370   121.44582420   359.89943251
 H     14  13  12     1.075768850637   125.69311770   179.98645600
 H     22  21  19     1.086615042230   106.01339089   179.82894333
 H     22  21  19     1.091944362136   110.32759206   299.68718242
 H     22  21  19     1.092022188419   110.32005145    59.96505232

---------------------------
INTERNAL COORDINATES (A.U.)
---------------------------
 C      0   0   0     0.000000000000     0.00000000     0.00000000
 O      1   0   0     2.681573940279     0.00000000     0.00000000
 C      2   1   0     2.547508877905   116.00983956     0.00000000
 O      3   2   1     2.276247233279   123.40057175     0.09770678
 C      3   2   1     2.782065968881   111.27491516   180.14041460
 C      5   3   2     2.658919492859   116.66789833   179.94407210
 N      6   5   3     2.168587671858   178.88128524   180.40353640
 C      5   3   2     2.597342263669   123.96797581     0.00000000
 C      8   5   3     2.700645508773   125.44143313   179.81106810
 C      9   8   5     2.558743615562   113.81864005   180.09380971
 C     10   9   8     2.686370712180   113.73363373   359.94044803
 C     11  10   9     2.593276881447   126.56942426   179.98527685
 C     12  11  10     2.685617782253   126.61934751   179.87330763
 C     13  12  11     2.560104622983   113.44955798   179.93327545
 C     14  13  12     2.693764913398   113.37235999     0.00000000
 C     15  14  13     2.600738034206   127.29866565   180.03295495
 C     16  15  14     2.647138121891   122.24159761     0.04327516
 N     17  16  15     2.170023139888   179.43179271     3.43914765
 C     16  15  14     2.765446795893   117.32261351   180.07921738
 O     19  16  15     2.300653529185   121.66542487   359.88743277
 O     19  16  15     2.511561268506   113.89763110   179.88563077
 C     21  19  16     2.684017517313   116.12945843   180.07346017
 S     15  14  13     3.281988678553   111.69687385     0.04558049
 S      8   5   3     3.290821090851   123.93415051   359.85119078
 H      1   2   3     2.063388218710   110.21992254    60.38090407
 H      1   2   3     2.053557877418   106.14276601   180.31796191
 H      1   2   3     2.063320314360   110.23410837   300.27711547
 H      9   8   5     2.032722607404   120.76930895     0.05147593
 H     10   9   8     2.032992291772   125.22394084   179.96527464
 H     13  12  11     2.033433727855   121.44582420   359.89943251
 H     14  13  12     2.032908511106   125.69311770   179.98645600
 H     22  21  19     2.053404842814   106.01339089   179.82894333
 H     22  21  19     2.063475797916   110.32759206   299.68718242
 H     22  21  19     2.063622868278   110.32005145    59.96505232

---------------------
BASIS SET INFORMATION
---------------------
There are 5 groups of distinct atoms

 Group   1 Type C   : 19s6p3d2f contracted to 5s4p3d2f pattern {88111/3111/111/11}
 Group   2 Type O   : 19s6p3d2f contracted to 5s4p3d2f pattern {88111/3111/111/11}
 Group   3 Type N   : 19s6p3d2f contracted to 5s4p3d2f pattern {88111/3111/111/11}
 Group   4 Type S   : 42s17p3d2f contracted to 6s5p3d2f pattern {131313111/77111/111/11}
 Group   5 Type H   : 5s2p1d contracted to 3s2p1d pattern {311/11/1}

Atom   0C    basis set group =>   1
Atom   1O    basis set group =>   2
Atom   2C    basis set group =>   1
Atom   3O    basis set group =>   2
Atom   4C    basis set group =>   1
Atom   5C    basis set group =>   1
Atom   6N    basis set group =>   3
Atom   7C    basis set group =>   1
Atom   8C    basis set group =>   1
Atom   9C    basis set group =>   1
Atom  10C    basis set group =>   1
Atom  11C    basis set group =>   1
Atom  12C    basis set group =>   1
Atom  13C    basis set group =>   1
Atom  14C    basis set group =>   1
Atom  15C    basis set group =>   1
Atom  16C    basis set group =>   1
Atom  17N    basis set group =>   3
Atom  18C    basis set group =>   1
Atom  19O    basis set group =>   2
Atom  20O    basis set group =>   2
Atom  21C    basis set group =>   1
Atom  22S    basis set group =>   4
Atom  23S    basis set group =>   4
Atom  24H    basis set group =>   5
Atom  25H    basis set group =>   5
Atom  26H    basis set group =>   5
Atom  27H    basis set group =>   5
Atom  28H    basis set group =>   5
Atom  29H    basis set group =>   5
Atom  30H    basis set group =>   5
Atom  31H    basis set group =>   5
Atom  32H    basis set group =>   5
Atom  33H    basis set group =>   5
---------------------------------
AUXILIARY/J BASIS SET INFORMATION
---------------------------------
There are 5 groups of distinct atoms

 Group   1 Type C   : 10s7p5d2f1g contracted to 10s7p5d2f1g pattern {1111111111/1111111/11111/11/1}
 Group   2 Type O   : 10s7p5d2f1g contracted to 10s7p5d2f1g pattern {1111111111/1111111/11111/11/1}
 Group   3 Type N   : 10s7p5d2f1g contracted to 10s7p5d2f1g pattern {1111111111/1111111/11111/11/1}
 Group   4 Type S   : 13s11p9d3f1g contracted to 13s11p9d3f1g pattern {1111111111111/11111111111/111111111/111/1}
 Group   5 Type H   : 4s3p2d1f contracted to 4s3p2d1f pattern {1111/111/11/1}

Atom   0C    basis set group =>   1
Atom   1O    basis set group =>   2
Atom   2C    basis set group =>   1
Atom   3O    basis set group =>   2
Atom   4C    basis set group =>   1
Atom   5C    basis set group =>   1
Atom   6N    basis set group =>   3
Atom   7C    basis set group =>   1
Atom   8C    basis set group =>   1
Atom   9C    basis set group =>   1
Atom  10C    basis set group =>   1
Atom  11C    basis set group =>   1
Atom  12C    basis set group =>   1
Atom  13C    basis set group =>   1
Atom  14C    basis set group =>   1
Atom  15C    basis set group =>   1
Atom  16C    basis set group =>   1
Atom  17N    basis set group =>   3
Atom  18C    basis set group =>   1
Atom  19O    basis set group =>   2
Atom  20O    basis set group =>   2
Atom  21C    basis set group =>   1
Atom  22S    basis set group =>   4
Atom  23S    basis set group =>   4
Atom  24H    basis set group =>   5
Atom  25H    basis set group =>   5
Atom  26H    basis set group =>   5
Atom  27H    basis set group =>   5
Atom  28H    basis set group =>   5
Atom  29H    basis set group =>   5
Atom  30H    basis set group =>   5
Atom  31H    basis set group =>   5
Atom  32H    basis set group =>   5
Atom  33H    basis set group =>   5
---------------------------------
AUXILIARY/C BASIS SET INFORMATION
---------------------------------
There are 5 groups of distinct atoms

 Group   1 Type C   : 9s7p6d4f2g contracted to 9s7p6d4f2g pattern {111111111/1111111/111111/1111/11}
 Group   2 Type O   : 9s7p6d4f2g contracted to 9s7p6d4f2g pattern {111111111/1111111/111111/1111/11}
 Group   3 Type N   : 9s7p6d4f2g contracted to 9s7p6d4f2g pattern {111111111/1111111/111111/1111/11}
 Group   4 Type S   : 11s9p8d6f3g contracted to 11s9p8d6f3g pattern {11111111111/111111111/11111111/111111/111}
 Group   5 Type H   : 4s3p2d1f contracted to 4s3p2d1f pattern {1111/111/11/1}

Atom   0C    basis set group =>   1
Atom   1O    basis set group =>   2
Atom   2C    basis set group =>   1
Atom   3O    basis set group =>   2
Atom   4C    basis set group =>   1
Atom   5C    basis set group =>   1
Atom   6N    basis set group =>   3
Atom   7C    basis set group =>   1
Atom   8C    basis set group =>   1
Atom   9C    basis set group =>   1
Atom  10C    basis set group =>   1
Atom  11C    basis set group =>   1
Atom  12C    basis set group =>   1
Atom  13C    basis set group =>   1
Atom  14C    basis set group =>   1
Atom  15C    basis set group =>   1
Atom  16C    basis set group =>   1
Atom  17N    basis set group =>   3
Atom  18C    basis set group =>   1
Atom  19O    basis set group =>   2
Atom  20O    basis set group =>   2
Atom  21C    basis set group =>   1
Atom  22S    basis set group =>   4
Atom  23S    basis set group =>   4
Atom  24H    basis set group =>   5
Atom  25H    basis set group =>   5
Atom  26H    basis set group =>   5
Atom  27H    basis set group =>   5
Atom  28H    basis set group =>   5
Atom  29H    basis set group =>   5
Atom  30H    basis set group =>   5
Atom  31H    basis set group =>   5
Atom  32H    basis set group =>   5
Atom  33H    basis set group =>   5


           ************************************************************
           *        Program running with 4 parallel MPI-processes     *
           *              working on a common directory               *
           ************************************************************
------------------------------------------------------------------------------
                           ORCA GTO INTEGRAL CALCULATION
                           -- RI-GTO INTEGRALS CHOSEN --
------------------------------------------------------------------------------
------------------------------------------------------------------------------
                   ___                                                        
                  /   \      - P O W E R E D   B Y -                         
                 /     \                                                     
                 |  |  |   _    _      __       _____    __    __             
                 |  |  |  | |  | |    /  \     |  _  \  |  |  /  |          
                  \  \/   | |  | |   /    \    | | | |  |  | /  /          
                 / \  \   | |__| |  /  /\  \   | |_| |  |  |/  /          
                |  |  |   |  __  | /  /__\  \  |    /   |      \           
                |  |  |   | |  | | |   __   |  |    \   |  |\   \          
                \     /   | |  | | |  |  |  |  | |\  \  |  | \   \       
                 \___/    |_|  |_| |__|  |__|  |_| \__\ |__|  \__/        
                                                                              
                      - O R C A' S   B I G   F R I E N D -                    
                                      &                                       
                       - I N T E G R A L  F E E D E R -                       
                                                                              
 v1 FN, 2020, v2 2021                                                         
------------------------------------------------------------------------------


Reading SHARK input file pbe0-train-6.SHARKINP.tmp ... ok
----------------------
SHARK INTEGRAL PACKAGE
----------------------

Number of atoms                             ...     34
Number of basis functions                   ...   1434
Number of shells                            ...    562
Maximum angular momentum                    ...      3
Integral batch strategy                     ... SHARK/LIBINT Hybrid
RI-J (if used) integral strategy            ... SPLIT-RIJ (Revised 2003 algorithm where possible)
Printlevel                                  ...      1
Contraction scheme used                     ... PARTIAL GENERAL contraction
Coulomb Range Separation                    ... NOT USED
Exchange Range Separation                   ... NOT USED
Finite Nucleus Model                        ... NOT USED
Auxiliary Coulomb fitting basis             ... AVAILABLE
   # of basis functions in Aux-J            ...   2280
   # of shells in Aux-J                     ...    724
   Maximum angular momentum in Aux-J        ...      4
Auxiliary J/K fitting basis                 ... NOT available
Auxiliary Correlation fitting basis         ... AVAILABLE
   # of basis functions in Aux-C            ...   2926
   # of shells in Aux-C                     ...    790
   Maximum angular momentum in Aux-C        ...      4
Auxiliary 'external' fitting basis          ... NOT available
Integral threshold                          ...     2.500000e-11
Primitive cut-off                           ...     2.500000e-12
Primitive pair pre-selection threshold      ...     2.500000e-12

Calculating pre-screening integrals         ... done (  0.4 sec) Dimension = 562
Calculating pre-screening integrals (ORCA)  ... done (  1.0 sec) Dimension = 400
Organizing shell pair data                  ... done (  1.7 sec)
Shell pair information
Total number of shell pairs                 ...    158203
Shell pairs after pre-screening             ...     85650
Total number of primitive shell pairs       ...    196347
Primitive shell pairs kept                  ...     96907
          la=0 lb=0:  18561 shell pairs
          la=1 lb=0:  22526 shell pairs
          la=1 lb=1:   5894 shell pairs
          la=2 lb=0:  13907 shell pairs
          la=2 lb=1:   7229 shell pairs
          la=2 lb=2:   2287 shell pairs
          la=3 lb=0:   7717 shell pairs
          la=3 lb=1:   4172 shell pairs
          la=3 lb=2:   2591 shell pairs
          la=3 lb=3:    766 shell pairs

Calculating one electron integrals          ... done (  0.3 sec)
Calculating RI/J V-Matrix + Cholesky decomp.... done (  0.4 sec)
Calculating RI/C V-Matrix + Cholesky decomp.... done (  0.7 sec)
Calculating Nuclear repulsion               ... done (  0.0 sec) ENN=   2124.042008873448 Eh

SHARK setup successfully completed in   6.0 seconds

Maximum memory used throughout the entire GTOINT-calculation: 142.8 MB


           ************************************************************
           *        Program running with 4 parallel MPI-processes     *
           *              working on a common directory               *
           ************************************************************
-------------------------------------------------------------------------------
                                 ORCA SCF
-------------------------------------------------------------------------------

------------
SCF SETTINGS
------------
Hamiltonian:
 Density Functional     Method          .... DFT(GTOs)
 Exchange Functional    Exchange        .... PBE
   PBE kappa parameter   XKappa         ....  0.804000
   PBE mue parameter    XMuePBE         ....  0.219520
 Correlation Functional Correlation     .... PBE
   PBE beta parameter  CBetaPBE         ....  0.066725
 LDA part of GGA corr.  LDAOpt          .... PW91-LDA
 Gradients option       PostSCFGGA      .... off
 Hybrid DFT is turned on
   Fraction HF Exchange ScalHFX         ....  0.250000
   Scaling of DF-GGA-X  ScalDFX         ....  0.750000
   Scaling of DF-GGA-C  ScalDFC         ....  1.000000
   Scaling of DF-LDA-C  ScalLDAC        ....  1.000000
   Perturbative correction              ....  0.000000
   Density functional embedding theory  .... OFF
   NL short-range parameter             ....  6.900000
 RI-approximation to the Coulomb term is turned on
   Number of AuxJ basis functions       .... 2280
   RIJ-COSX (HFX calculated with COS-X)).... on


General Settings:
 Integral files         IntName         .... pbe0-train-6
 Hartree-Fock type      HFTyp           .... RHF
 Total Charge           Charge          ....    0
 Multiplicity           Mult            ....    1
 Number of Electrons    NEL             ....  184
 Basis Dimension        Dim             .... 1252
 Nuclear Repulsion      ENuc            ....   2124.0420088734 Eh

Convergence Acceleration:
 DIIS                   CNVDIIS         .... on
   Start iteration      DIISMaxIt       ....    12
   Startup error        DIISStart       ....  0.200000
   # of expansion vecs  DIISMaxEq       ....     5
   Bias factor          DIISBfac        ....   1.050
   Max. coefficient     DIISMaxC        ....  10.000
 Trust-Rad. Augm. Hess. CNVTRAH         .... auto
   Auto Start mean grad. ratio tolernc. ....  1.125000
   Auto Start start iteration           ....    20
   Auto Start num. interpolation iter.  ....    10
   Max. Number of Micro iterations      ....    16
   Max. Number of Macro iterations      .... Maxiter - #DIIS iter
   Number of Davidson start vectors     ....     2
   Converg. threshold I  (grad. norm)   ....   1.000e-05
   Converg. threshold II (energy diff.) ....   1.000e-08
   Grad. Scal. Fac. for Micro threshold ....   0.100
   Minimum threshold for Micro iter.    ....   0.010
   NR start threshold (gradient norm)   ....   0.001
   Initial trust radius                 ....   0.400
   Minimum AH scaling param. (alpha)    ....   1.000
   Maximum AH scaling param. (alpha)    .... 1000.000
   Orbital update algorithm             .... Taylor
   White noise on init. David. guess    .... on
   Maximum white noise                  ....   0.010
   Quad. conv. algorithm                .... NR
 SOSCF                  CNVSOSCF        .... on
   Start iteration      SOSCFMaxIt      ....   150
   Startup grad/error   SOSCFStart      ....  0.003300
 Level Shifting         CNVShift        .... on
   Level shift para.    LevelShift      ....    0.2500
   Turn off err/grad.   ShiftErr        ....    0.0010
 Zerner damping         CNVZerner       .... off
 Static damping         CNVDamp         .... on
   Fraction old density DampFac         ....    0.7000
   Max. Damping (<1)    DampMax         ....    0.9800
   Min. Damping (>=0)   DampMin         ....    0.0000
   Turn off err/grad.   DampErr         ....    0.1000
 Fernandez-Rico         CNVRico         .... off

SCF Procedure:
 Maximum # iterations   MaxIter         ....   125
 SCF integral mode      SCFMode         .... Direct
   Integral package                     .... SHARK and LIBINT hybrid scheme
 Reset frequency        DirectResetFreq ....    20
 Integral Threshold     Thresh          ....  2.500e-11 Eh
 Primitive CutOff       TCut            ....  2.500e-12 Eh

Convergence Tolerance:
 Convergence Check Mode ConvCheckMode   .... Total+1el-Energy
 Convergence forced     ConvForced      .... 0
 Energy Change          TolE            ....  1.000e-08 Eh
 1-El. energy change                    ....  1.000e-05 Eh
 Orbital Gradient       TolG            ....  1.000e-05
 Orbital Rotation angle TolX            ....  1.000e-05
 DIIS Error             TolErr          ....  5.000e-07


Diagonalization of the overlap matrix:
Smallest eigenvalue                        ... 3.061e-07
Time for diagonalization                   ...    0.564 sec
Threshold for overlap eigenvalues          ... 1.000e-08
Number of eigenvalues below threshold      ... 0
Time for construction of square roots      ...    0.309 sec
Total time needed                          ...    0.885 sec

Time for model grid setup =    1.194 sec

------------------------------
INITIAL GUESS: MODEL POTENTIAL
------------------------------
Loading Hartree-Fock densities                     ... done
Calculating cut-offs                               ... done
Initializing the effective Hamiltonian             ... done
Setting up the integral package (SHARK)            ... done
Starting the Coulomb interaction                   ... done (   5.2 sec)
Reading the grid                                   ... done
Mapping shells                                     ... done
Starting the XC term evaluation                    ... done (   3.2 sec)
  promolecular density results
     # of electrons  =    183.997693624
     EX              =   -180.262481498
     EC              =     -6.378318293
     EX+EC           =   -186.640799792
Transforming the Hamiltonian                       ... done (   0.3 sec)
Diagonalizing the Hamiltonian                      ... done (   0.6 sec)
Back transforming the eigenvectors                 ... done (   0.1 sec)
Now organizing SCF variables                       ... done
                      ------------------
                      INITIAL GUESS DONE (  10.7 sec)
                      ------------------
-------------------
DFT GRID GENERATION
-------------------

General Integration Accuracy     IntAcc      ... 4.388
Radial Grid Type                 RadialGrid  ... OptM3 with GC (2021)
Angular Grid (max. ang.)         AngularGrid ... 4 (Lebedev-302)
Angular grid pruning method      GridPruning ... 4 (adaptive)
Weight generation scheme         WeightScheme... Becke
Basis function cutoff            BFCut       ... 1.0000e-11
Integration weight cutoff        WCut        ... 1.0000e-14
Angular grids for H and He will be reduced by one unit
Partially contracted basis set               ... off
Rotationally invariant grid construction     ... off

Total number of grid points                  ...   185408
Total number of batches                      ...     2913
Average number of points per batch           ...       63
Average number of grid points per atom       ...     5453
Time for grid setup =    4.081 sec

--------------------
COSX GRID GENERATION
--------------------

GRIDX 1
-------
General Integration Accuracy     IntAcc      ... 3.816
Radial Grid Type                 RadialGrid  ... OptM3 with GC (2021)
Angular Grid (max. ang.)         AngularGrid ... 1 (Lebedev-50)
Angular grid pruning method      GridPruning ... 4 (adaptive)
Weight generation scheme         WeightScheme... Becke
Basis function cutoff            BFCut       ... 1.0000e-11
Integration weight cutoff        WCut        ... 1.0000e-14
Angular grids for H and He will be reduced by one unit
Partially contracted basis set               ... on
Rotationally invariant grid construction     ... off

Total number of grid points                  ...    23357
Total number of batches                      ...      380
Average number of points per batch           ...       61
Average number of grid points per atom       ...      687
UseSFitting                                  ... on

GRIDX 2
-------
General Integration Accuracy     IntAcc      ... 4.020
Radial Grid Type                 RadialGrid  ... OptM3 with GC (2021)
Angular Grid (max. ang.)         AngularGrid ... 2 (Lebedev-110)
Angular grid pruning method      GridPruning ... 4 (adaptive)
Weight generation scheme         WeightScheme... Becke
Basis function cutoff            BFCut       ... 1.0000e-11
Integration weight cutoff        WCut        ... 1.0000e-14
Angular grids for H and He will be reduced by one unit
Partially contracted basis set               ... on
Rotationally invariant grid construction     ... off

Total number of grid points                  ...    57561
Total number of batches                      ...      919
Average number of points per batch           ...       62
Average number of grid points per atom       ...     1693
UseSFitting                                  ... on

GRIDX 3
-------
General Integration Accuracy     IntAcc      ... 4.338
Radial Grid Type                 RadialGrid  ... OptM3 with GC (2021)
Angular Grid (max. ang.)         AngularGrid ... 3 (Lebedev-194)
Angular grid pruning method      GridPruning ... 4 (adaptive)
Weight generation scheme         WeightScheme... Becke
Basis function cutoff            BFCut       ... 1.0000e-11
Integration weight cutoff        WCut        ... 1.0000e-14
Angular grids for H and He will be reduced by one unit
Partially contracted basis set               ... on
Rotationally invariant grid construction     ... off

Total number of grid points                  ...   125435
Total number of batches                      ...     1977
Average number of points per batch           ...       63
Average number of grid points per atom       ...     3689
UseSFitting                                  ... on

Time for X-Grid setup             =    9.580 sec


--------------------
CPCM SOLVATION MODEL
--------------------
CPCM parameters:
  Epsilon                                         ...       2.3741
  Refrac                                          ...       1.4961
  Rsolv                                           ...       1.3000
  Surface type                                    ... GAUSSIAN VDW
  Epsilon function type                           ...         CPCM
Solvent:                                     ... TOLUENE
SMD-CDS solvent descriptors:
  Soln                                       ...    1.4961
  Soln25                                     ...    1.4936
  Sola                                       ...    0.0000
  Solb                                       ...    0.1400
  Solg                                       ...   40.2000
  Solc                                       ...    0.8570
  Solh                                       ...    0.0000
Radii:
 Radius for C  used is    3.4960 Bohr (=   1.8500 Ang.)
 Radius for O  used is    4.3350 Bohr (=   2.2940 Ang.)
 Radius for N  used is    3.5716 Bohr (=   1.8900 Ang.)
 Radius for S  used is    4.7054 Bohr (=   2.4900 Ang.)
 Radius for H  used is    2.2677 Bohr (=   1.2000 Ang.)
Calculating surface                               ...        done! (  0.0s)
GEPOL surface points                              ...         1779
GEPOL Volume                                      ...    2758.6728
GEPOL Surface-area                                ...    1373.4159
Calculating surface distance matrix               ...        done! (  0.0s)
Performing Cholesky decomposition & store         ...        done! (  0.2s)
Overall time for CPCM initialization              ...                 0.3s
 re-compute Schwartz prescreening matrix in partically contracted basis (1) ...done (   0.414 sec)
--------------
SCF ITERATIONS
--------------
ITER       Energy         Delta-E        Max-DP      RMS-DP      [F,P]     Damp
               ***  Starting incremental Fock matrix formation  ***
  0  -1820.8517141183   0.000000000000 0.17178374  0.00139075  0.2984732 0.7000
  1  -1821.1243699730  -0.272655854664 0.13701175  0.00113093  0.1136456 0.7000
                               ***Turning on DIIS***
  2  -1821.2238218207  -0.099451847781 0.25548179  0.00234812  0.0348500 0.0000
  3  -1821.3916624854  -0.167840664661 0.09900562  0.00062723  0.0531936 0.0000
  4  -1821.4242165646  -0.032554079224 0.04192950  0.00029345  0.0219529 0.0000
  5  -1821.4276739525  -0.003457387842 0.01370035  0.00009939  0.0044652 0.0000
                      *** Initiating the SOSCF procedure ***
                           *** Shutting down DIIS ***
                      *** Re-Reading the Fockian *** 
                      *** Removing any level shift *** 
ITER      Energy       Delta-E        Grad      Rot      Max-DP    RMS-DP
  6  -1821.42785825  -0.0001843014  0.000771  0.000771  0.009785  0.000061
               *** Restarting incremental Fock matrix formation ***
  7  -1821.42788088  -0.0000226243  0.000553  0.003483  0.055870  0.000569
  8  -1821.42789167  -0.0000107932  0.000302  0.002501  0.030388  0.000282
  9  -1821.42789547  -0.0000037950  0.000183  0.001108  0.035089  0.000268
 10  -1821.42789763  -0.0000021630  0.000094  0.000788  0.026917  0.000114
 11  -1821.42789776  -0.0000001313  0.000103  0.000508  0.009584  0.000084
 12  -1821.42789814  -0.0000003822  0.000024  0.000141  0.012503  0.000084
 13  -1821.42789814   0.0000000026  0.000032  0.000121  0.007269  0.000061
 14  -1821.42789818  -0.0000000367  0.000005  0.000039  0.017556  0.000081
 15  -1821.42789817   0.0000000057  0.000008  0.000027  0.011848  0.000076
                  ***Gradient check signals convergence***
              ***Rediagonalizing the Fockian in SOSCF/NRSCF***

               *****************************************************
               *                     SUCCESS                       *
               *           SCF CONVERGED AFTER  16 CYCLES          *
               *****************************************************

Old exchange energy                            =    -45.650892103 Eh
New exchange energy                            =    -45.650838291 Eh
Exchange energy change after final integration =      0.000053812 Eh
Total energy after final integration           =  -1821.427844391 Eh
Final COS-X integration done in                =   244.385 sec

SMD CDS free energy correction energy :                -3.71137     Kcal/mol
Total Energy after SMD CDS correction =             -1821.433758836 Eh

----------------
TOTAL SCF ENERGY
----------------

Total Energy       :        -1821.43375884 Eh          -49563.73235 eV

Components:
Nuclear Repulsion  :         2124.04200887 Eh           57798.12146 eV
Electronic Energy  :        -3945.47576771 Eh         -107361.85381 eV
One Electron Energy:        -6716.85764705 Eh         -182774.98868 eV
Two Electron Energy:         2771.38187934 Eh           75413.13487 eV
Max COSX asymmetry :            0.00004955 Eh               0.00135 eV
CPCM Dielectric    :           -0.01917385 Eh              -0.52175 eV
SMD CDS (Gcds)     :           -0.00591444 Eh              -0.16094 eV

Virial components:
Potential Energy   :        -3635.39480439 Eh          -98924.12183 eV
Kinetic Energy     :         1813.96104555 Eh           49360.38948 eV
Virial Ratio       :            2.00411956


DFT components:
N(Alpha)           :       92.000016360580 electrons
N(Beta)            :       92.000016360580 electrons
N(Total)           :      184.000032721159 electrons
E(X)               :     -136.668897140025 Eh       
E(C)               :       -6.384340481213 Eh       
E(XC)              :     -143.053237621239 Eh       
DFET-embed. en.    :        0.000000000000 Eh       
CPCM Solvation Model Properties:
Surface-charge          :           -0.03604872
Charge-correction       :            0.00015196 Eh               0.00413 eV
Free-energy (cav+disp)  :           -0.00591444 Eh              -0.16094 eV

---------------
SCF CONVERGENCE
---------------

  Last Energy change         ...   -3.1231e-08  Tolerance :   1.0000e-08
  Last MAX-Density change    ...    3.7748e-15  Tolerance :   1.0000e-07
  Last RMS-Density change    ...    1.8512e-17  Tolerance :   5.0000e-09
  Last Orbital Gradient      ...    2.2442e-06  Tolerance :   1.0000e-05
  Last Orbital Rotation      ...    2.7882e-05  Tolerance :   1.0000e-05

             **** THE GBW FILE WAS UPDATED (pbe0-train-6.gbw) ****
             **** DENSITY pbe0-train-6.scfp WAS UPDATED ****
             **** ENERGY FILE WAS UPDATED (pbe0-train-6.en.tmp) ****
             **** THE GBW FILE WAS UPDATED (pbe0-train-6.gbw) ****
             **** DENSITY pbe0-train-6.scfp WAS UPDATED ****
----------------
ORBITAL ENERGIES
----------------

  NO   OCC          E(Eh)            E(eV) 
   0   2.0000     -89.109055     -2424.7806 
   1   2.0000     -89.105834     -2424.6930 
   2   2.0000     -19.277747      -524.5742 
   3   2.0000     -19.277574      -524.5695 
   4   2.0000     -19.219571      -522.9911 
   5   2.0000     -19.211344      -522.7672 
   6   2.0000     -14.392992      -391.6532 
   7   2.0000     -14.392484      -391.6394 
   8   2.0000     -10.377386      -282.3830 
   9   2.0000     -10.374760      -282.3116 
  10   2.0000     -10.324542      -280.9451 
  11   2.0000     -10.321026      -280.8494 
  12   2.0000     -10.309767      -280.5430 
  13   2.0000     -10.305145      -280.4173 
  14   2.0000     -10.294061      -280.1156 
  15   2.0000     -10.290041      -280.0062 
  16   2.0000     -10.282514      -279.8014 
  17   2.0000     -10.281180      -279.7651 
  18   2.0000     -10.277941      -279.6770 
  19   2.0000     -10.277561      -279.6667 
  20   2.0000     -10.277170      -279.6560 
  21   2.0000     -10.275977      -279.6236 
  22   2.0000     -10.274281      -279.5774 
  23   2.0000     -10.273505      -279.5563 
  24   2.0000      -8.066020      -219.4876 
  25   2.0000      -8.061978      -219.3776 
  26   2.0000      -6.003317      -163.3586 
  27   2.0000      -5.999486      -163.2543 
  28   2.0000      -5.999300      -163.2492 
  29   2.0000      -5.995743      -163.1525 
  30   2.0000      -5.995360      -163.1420 
  31   2.0000      -5.991811      -163.0455 
  32   2.0000      -1.164757       -31.6947 
  33   2.0000      -1.161077       -31.5945 
  34   2.0000      -1.074467       -29.2377 
  35   2.0000      -1.068889       -29.0860 
  36   2.0000      -0.966801       -26.3080 
  37   2.0000      -0.956660       -26.0320 
  38   2.0000      -0.949683       -25.8422 
  39   2.0000      -0.938998       -25.5514 
  40   2.0000      -0.878317       -23.9002 
  41   2.0000      -0.856981       -23.3196 
  42   2.0000      -0.814149       -22.1541 
  43   2.0000      -0.805363       -21.9150 
  44   2.0000      -0.788387       -21.4531 
  45   2.0000      -0.769448       -20.9377 
  46   2.0000      -0.755247       -20.5513 
  47   2.0000      -0.719235       -19.5714 
  48   2.0000      -0.662949       -18.0398 
  49   2.0000      -0.641955       -17.4685 
  50   2.0000      -0.626529       -17.0487 
  51   2.0000      -0.624981       -17.0066 
  52   2.0000      -0.608863       -16.5680 
  53   2.0000      -0.594533       -16.1781 
  54   2.0000      -0.578163       -15.7326 
  55   2.0000      -0.564702       -15.3663 
  56   2.0000      -0.557952       -15.1826 
  57   2.0000      -0.532861       -14.4999 
  58   2.0000      -0.522877       -14.2282 
  59   2.0000      -0.521423       -14.1887 
  60   2.0000      -0.512152       -13.9364 
  61   2.0000      -0.505737       -13.7618 
  62   2.0000      -0.489608       -13.3229 
  63   2.0000      -0.473738       -12.8911 
  64   2.0000      -0.466732       -12.7004 
  65   2.0000      -0.459624       -12.5070 
  66   2.0000      -0.457090       -12.4380 
  67   2.0000      -0.452821       -12.3219 
  68   2.0000      -0.447210       -12.1692 
  69   2.0000      -0.435289       -11.8448 
  70   2.0000      -0.434455       -11.8221 
  71   2.0000      -0.421561       -11.4713 
  72   2.0000      -0.416863       -11.3434 
  73   2.0000      -0.406252       -11.0547 
  74   2.0000      -0.398245       -10.8368 
  75   2.0000      -0.397751       -10.8234 
  76   2.0000      -0.397141       -10.8068 
  77   2.0000      -0.393490       -10.7074 
  78   2.0000      -0.389587       -10.6012 
  79   2.0000      -0.387126       -10.5342 
  80   2.0000      -0.371859       -10.1188 
  81   2.0000      -0.366972        -9.9858 
  82   2.0000      -0.361973        -9.8498 
  83   2.0000      -0.347330        -9.4513 
  84   2.0000      -0.340111        -9.2549 
  85   2.0000      -0.337012        -9.1706 
  86   2.0000      -0.316054        -8.6003 
  87   2.0000      -0.311688        -8.4815 
  88   2.0000      -0.309744        -8.4286 
  89   2.0000      -0.302228        -8.2240 
  90   2.0000      -0.291859        -7.9419 
  91   2.0000      -0.233987        -6.3671 
  92   0.0000      -0.144736        -3.9385 
  93   0.0000      -0.075124        -2.0442 
  94   0.0000      -0.022289        -0.6065 
  95   0.0000      -0.007834        -0.2132 
  96   0.0000      -0.000313        -0.0085 
  97   0.0000       0.002123         0.0578 
  98   0.0000       0.004687         0.1275 
  99   0.0000       0.005946         0.1618 
 100   0.0000       0.009492         0.2583 
 101   0.0000       0.010155         0.2763 
 102   0.0000       0.014029         0.3817 
 103   0.0000       0.019023         0.5176 
 104   0.0000       0.021957         0.5975 
 105   0.0000       0.024310         0.6615 
 106   0.0000       0.025782         0.7016 
 107   0.0000       0.027342         0.7440 
 108   0.0000       0.028246         0.7686 
 109   0.0000       0.032407         0.8818 
 110   0.0000       0.034768         0.9461 
 111   0.0000       0.037113         1.0099 
 112   0.0000       0.041413         1.1269 
 113   0.0000       0.041569         1.1311 
 114   0.0000       0.044583         1.2132 
 115   0.0000       0.049135         1.3370 
 116   0.0000       0.050634         1.3778 
 117   0.0000       0.053990         1.4691 
 118   0.0000       0.057917         1.5760 
 119   0.0000       0.061442         1.6719 
 120   0.0000       0.064012         1.7419 
 121   0.0000       0.068952         1.8763 
 122   0.0000       0.073636         2.0037 
 123   0.0000       0.073699         2.0054 
 124   0.0000       0.079005         2.1498 
 125   0.0000       0.081923         2.2292 
 126   0.0000       0.083172         2.2632 
 127   0.0000       0.087799         2.3891 
 128   0.0000       0.089990         2.4487 
 129   0.0000       0.091150         2.4803 
 130   0.0000       0.094733         2.5778 
 131   0.0000       0.100416         2.7325 
 132   0.0000       0.101022         2.7489 
 133   0.0000       0.104374         2.8402 
 134   0.0000       0.106907         2.9091 
 135   0.0000       0.109204         2.9716 
 136   0.0000       0.111041         3.0216 
 137   0.0000       0.112150         3.0518 
 138   0.0000       0.116968         3.1829 
 139   0.0000       0.118538         3.2256 
 140   0.0000       0.121266         3.2998 
 141   0.0000       0.122996         3.3469 
 142   0.0000       0.124802         3.3960 
 143   0.0000       0.127075         3.4579 
 144   0.0000       0.128843         3.5060 
 145   0.0000       0.131278         3.5722 
 146   0.0000       0.132228         3.5981 
 147   0.0000       0.133827         3.6416 
 148   0.0000       0.133977         3.6457 
 149   0.0000       0.139188         3.7875 
 150   0.0000       0.142593         3.8801 
 151   0.0000       0.149230         4.0608 
 152   0.0000       0.153385         4.1738 
 153   0.0000       0.153423         4.1749 
 154   0.0000       0.154182         4.1955 
 155   0.0000       0.155615         4.2345 
 156   0.0000       0.157345         4.2816 
 157   0.0000       0.160848         4.3769 
 158   0.0000       0.161346         4.3904 
 159   0.0000       0.164122         4.4660 
 160   0.0000       0.167004         4.5444 
 161   0.0000       0.167170         4.5489 
 162   0.0000       0.168569         4.5870 
 163   0.0000       0.172770         4.7013 
[...]
B( 18-C , 20-O ) :   0.8804 B( 18-C , 21-C ) :   0.1291 B( 18-C , 22-S ) :  -0.1832 
B( 19-O , 22-S ) :  -0.1034 B( 20-O , 21-C ) :   0.8669 B( 21-C , 31-H ) :   1.0067 
B( 21-C , 32-H ) :   0.9501 B( 21-C , 33-H ) :   0.9466 

-------
TIMINGS
-------

Total SCF time: 0 days 0 hours 13 min 37 sec 

Total time                  ....     817.973 sec
Sum of individual times     ....     810.928 sec  ( 99.1%)

Fock matrix formation       ....     790.453 sec  ( 96.6%)
  Split-RI-J                ....      44.640 sec  (  5.6% of F)
  Chain of spheres X        ....     680.248 sec  ( 86.1% of F)
  XC integration            ....      36.188 sec  (  4.6% of F)
    Basis function eval.    ....       6.266 sec  ( 17.3% of XC)
    Density eval.           ....      14.303 sec  ( 39.5% of XC)
    XC-Functional eval.     ....       0.354 sec  (  1.0% of XC)
    XC-Potential eval.      ....      10.149 sec  ( 28.0% of XC)
Diagonalization             ....       0.878 sec  (  0.1%)
Density matrix formation    ....       0.203 sec  (  0.0%)
Population analysis         ....       0.876 sec  (  0.1%)
Initial guess               ....       1.726 sec  (  0.2%)
Orbital Transformation      ....       0.000 sec  (  0.0%)
Orbital Orthonormalization  ....       1.590 sec  (  0.2%)
DIIS solution               ....       0.348 sec  (  0.0%)
SOSCF solution              ....       2.032 sec  (  0.2%)
Grid generation             ....      14.412 sec  (  1.8%)

Maximum memory used throughout the entire SCF-calculation: 367.4 MB


           ************************************************************
           *        Program running with 4 parallel MPI-processes     *
           *              working on a common directory               *
           ************************************************************
------------------------------------------------------------------------------
                        ORCA TD-DFT/TDA CALCULATION
------------------------------------------------------------------------------

Input orbitals are from        ... pbe0-train-6_job2.gbw
CI-vector output               ... pbe0-train-6_job2.cis
Tamm-Dancoff approximation     ... operative
CIS-Integral strategy          ... AO-integrals
Integral handling              ... AO integral Direct
Max. core memory used          ... 4000 MB
Reference state                ... RHF
Generation of triplets         ... off
Follow IRoot                   ... off
Number of operators            ... 1
Orbital ranges used for CIS calculation:
 Operator 0:  Orbitals  32... 91  to  92...1251
XAS localization array:
 Operator 0:  Orbitals  -1... -1

-------------------
XC-INTEGRATION GRID
-------------------

General Integration Accuracy     IntAcc      ... 3.467
Radial Grid Type                 RadialGrid  ... OptM3 with GC (2021)
Angular Grid (max. ang.)         AngularGrid ... 1 (Lebedev-50)
Angular grid pruning method      GridPruning ... 4 (adaptive)
Weight generation scheme         WeightScheme... Becke
Basis function cutoff            BFCut       ... 1.0000e-11
Integration weight cutoff        WCut        ... 1.0000e-14
Angular grids for H and He will be reduced by one unit
Partially contracted basis set               ... off
Rotationally invariant grid construction     ... off

Total number of grid points                  ...    28188
Total number of batches                      ...      455
Average number of points per batch           ...       61
Average number of grid points per atom       ...      829

---------------------
COSX-INTEGRATION GRID
---------------------

General Integration Accuracy     IntAcc      ... 3.067
Radial Grid Type                 RadialGrid  ... OptM3 with GC (2021)
Angular Grid (max. ang.)         AngularGrid ... 1 (Lebedev-50)
Angular grid pruning method      GridPruning ... 4 (adaptive)
Weight generation scheme         WeightScheme... Becke
Basis function cutoff            BFCut       ... 1.0000e-11
Integration weight cutoff        WCut        ... 1.0000e-14
Angular grids for H and He will be reduced by one unit
Partially contracted basis set               ... on
Rotationally invariant grid construction     ... off

Total number of grid points                  ...    12660
Total number of batches                      ...      217
Average number of points per batch           ...       58
Average number of grid points per atom       ...      372

---------------
TD-DFT XC SETUP
---------------

DFT calculation                         ... on
Name of the grid file                   ... pbe0-train-6_job2.grid_cis.tmp
Exchange functional (TD-DFT)            ... PBE
   PBE kappa parameter  XKappa (TD-DFT) ...  0.804000
   PBE mue parameter   XMuePBE (TD-DFT) ...  0.219520
Correlation functional (TD-DFT)         ... PBE
   PBE beta parameter CBetaPBE (TD-DFT) ...  0.066725
 LDA part of GGA corr.  LDAOpt (TD-DFT) ... PW91-LDA
Hybrid DFT                              ... on
   Exchange mixing (TD-DFT)             ...  0.250
   GGA exch. scaling (TD-DFT)           ...  0.750
   GGA corr. scaling (TD-DFT)           ...  1.000

Building densities             ... done
Calculating rho(r) on the grid ... done
Building xc-kernel on the grid ... done
                    *** TD-DFT CALCULATION INITIALIZED ***

---------------------------------
    LR-CPCM (non-equilibrium)
---------------------------------

Setting up LR-CPCM             ... done

------------------------
DAVIDSON-DIAGONALIZATION
------------------------

Dimension of the eigenvalue problem            ...  69600
Number of roots to be determined               ...     10
Maximum size of the expansion space            ...     70
Maximum number of iterations                   ...    100
Convergence tolerance for the residual         ...    1.000e-06
Convergence tolerance for the energies         ...    1.000e-06
Orthogonality tolerance                        ...    1.000e-14
Level Shift                                    ...    0.000e+00
Constructing the preconditioner                ... o.k.
Building the initial guess                     ... o.k.
Number of trial vectors determined             ...     70


                       ****Iteration    0****

   Memory handling for direct AO based CIS:
   Memory per vector needed      ...    71 MB
   Memory needed                 ...  2152 MB
   Memory available              ...  4000 MB
   Number of vectors per batch   ...    55
   Number of batches             ...     1
   Time for densities:            0.978
   Time for RI-J (Direct):       35.927
   Time for K (COSX):           201.988
   Time for XC-Integration:      71.969
   Time for LR-CPCM terms:       41.676
   Time for Sigma-Completion:     0.914
   Size of expansion space: 30
   Lowest Energy          :     0.106336987191
   Maximum Energy change  :     0.187290225636 (vector 9)
   Maximum residual norm  :     0.014318411321

                       ****Iteration    1****
   Time for densities:            0.325
   Time for RI-J (Direct):       24.708
   Time for K (COSX):            76.085
   Time for XC-Integration:      24.398
   Time for LR-CPCM terms:       18.708
   Time for Sigma-Completion:     0.358
   Size of expansion space: 40
   Lowest Energy          :     0.091067163514
   Maximum Energy change  :     0.015269823677 (vector 0)
   Maximum residual norm  :     0.007028640794

                       ****Iteration    2****
   Time for densities:            0.321
   Time for RI-J (Direct):       24.171
   Time for K (COSX):            75.753
   Time for XC-Integration:      26.183
   Time for LR-CPCM terms:       15.943
   Time for Sigma-Completion:     0.231
   Size of expansion space: 50
   Lowest Energy          :     0.090621456332
   Maximum Energy change  :     0.007897950044 (vector 6)
   Maximum residual norm  :     0.000247689284

                       ****Iteration    3****
   Time for densities:            0.301
   Time for RI-J (Direct):       20.711
   Time for K (COSX):            61.999
   Time for XC-Integration:      23.965
   Time for LR-CPCM terms:       16.586
   Time for Sigma-Completion:     0.247
   Size of expansion space: 60
   Lowest Energy          :     0.090567598819
   Maximum Energy change  :     0.000346213832 (vector 8)
   Maximum residual norm  :     0.000023024446

                       ****Iteration    4****
   Time for densities:            0.296
   Time for RI-J (Direct):       21.458
   Time for K (COSX):            65.247
   Time for XC-Integration:      23.123
   Time for LR-CPCM terms:       15.507
   Time for Sigma-Completion:     0.349
   Size of expansion space: 70
   Lowest Energy          :     0.090565448074
   Maximum Energy change  :     0.000025447698 (vector 8)
   Maximum residual norm  :     0.000001715768
   Rebuilding the expansion space

                       ****Iteration    5****
   Time for densities:            0.594
   Time for RI-J (Direct):       25.290
   Time for K (COSX):           119.770
   Time for XC-Integration:      44.011
   Time for LR-CPCM terms:       23.760
   Time for Sigma-Completion:     0.526
   Size of expansion space: 20
   Lowest Energy          :     0.090565504270
   Maximum Energy change  :     0.000001831882 (vector 8)
   Maximum residual norm  :     0.000000181377

      *** CONVERGENCE OF RESIDUAL NORM REACHED ***

Storing the converged CI vectors               ... pbe0-train-6_job2.cis1

                 *** DAVIDSON DONE ***

Total time for solving the CIS problem:  1107.359sec

------------------------------------
TD-DFT/TDA EXCITED STATES (SINGLETS)
------------------------------------

the weight of the individual excitations are printed if larger than 1.0e-02

STATE  1:  E=   0.090566 au      2.464 eV    19876.8 cm**-1 <S**2> =   0.000000
    89a ->  92a  :     0.030256 (c=  0.17394147)
    91a ->  92a  :     0.940161 (c=  0.96961878)

STATE  2:  E=   0.123533 au      3.362 eV    27112.4 cm**-1 <S**2> =   0.000000
    87a ->  92a  :     0.064783 (c= -0.25452414)
    90a ->  92a  :     0.655068 (c=  0.80936274)
    91a ->  93a  :     0.259006 (c= -0.50892595)

STATE  3:  E=   0.129857 au      3.534 eV    28500.3 cm**-1 <S**2> =   0.000000
    89a ->  92a  :     0.944432 (c=  0.97181898)
    91a ->  92a  :     0.027180 (c= -0.16486429)

STATE  4:  E=   0.134846 au      3.669 eV    29595.2 cm**-1 <S**2> =   0.000000
    87a ->  92a  :     0.635083 (c=  0.79692085)
    90a ->  92a  :     0.012042 (c= -0.10973650)
    91a ->  93a  :     0.330965 (c= -0.57529519)

STATE  5:  E=   0.135461 au      3.686 eV    29730.2 cm**-1 <S**2> =   0.000000
    86a ->  92a  :     0.011584 (c=  0.10762680)
    88a ->  92a  :     0.952316 (c=  0.97586689)
    88a ->  93a  :     0.016353 (c=  0.12787981)

STATE  6:  E=   0.139307 au      3.791 eV    30574.3 cm**-1 <S**2> =   0.000000
    86a ->  92a  :     0.936817 (c= -0.96789310)
    86a ->  93a  :     0.023547 (c=  0.15344937)
    88a ->  92a  :     0.011211 (c=  0.10588129)

STATE  7:  E=   0.155392 au      4.228 eV    34104.7 cm**-1 <S**2> =   0.000000
    84a ->  92a  :     0.016761 (c=  0.12946574)
    87a ->  92a  :     0.279025 (c=  0.52822799)
    90a ->  92a  :     0.281144 (c=  0.53022972)
    91a ->  93a  :     0.352619 (c=  0.59381700)

STATE  8:  E=   0.170717 au      4.645 eV    37467.9 cm**-1 <S**2> =   0.000000
    84a ->  92a  :     0.011442 (c= -0.10696650)
    85a ->  92a  :     0.880468 (c= -0.93833252)
    91a ->  94a  :     0.079226 (c=  0.28147073)

STATE  9:  E=   0.173644 au      4.725 eV    38110.5 cm**-1 <S**2> =   0.000000
    84a ->  92a  :     0.935615 (c= -0.96727176)
    91a ->  94a  :     0.012656 (c= -0.11250001)

STATE 10:  E=   0.176976 au      4.816 eV    38841.8 cm**-1 <S**2> =   0.000000
    83a ->  92a  :     0.516807 (c= -0.71889269)
    84a ->  92a  :     0.016045 (c=  0.12666855)
    85a ->  92a  :     0.073033 (c= -0.27024552)
    91a ->  94a  :     0.372990 (c= -0.61072932)


-----------------------------
TD-DFT/TDA-EXCITATION SPECTRA
-----------------------------

Center of mass = ( -0.2716, -0.1094,  0.0579)
Calculating the Dipole integrals                  ... done
Transforming integrals                            ... done
Calculating the Linear Momentum integrals         ... done
Transforming integrals                            ... done
Calculating angular momentum integrals            ... done
Transforming integrals                            ... done

-----------------------------------------------------------------------------
         ABSORPTION SPECTRUM VIA TRANSITION ELECTRIC DIPOLE MOMENTS
-----------------------------------------------------------------------------
State   Energy    Wavelength  fosc         T2        TX        TY        TZ  
        (cm-1)      (nm)                 (au**2)    (au)      (au)      (au) 
-----------------------------------------------------------------------------
   1   19876.8    503.1   2.252708505  37.31070   5.99171   0.35016   1.13468
   2   27112.4    368.8   0.005261580   0.06389  -0.24595  -0.02712  -0.05160
   3   28500.3    350.9   0.398621113   4.60454  -2.10873  -0.10452  -0.38323
   4   29595.2    337.9   0.004657414   0.05181  -0.22432   0.00319  -0.03843
   5   29730.2    336.4   0.000099425   0.00110   0.00701  -0.01515   0.02867
   6   30574.3    327.1   0.000055251   0.00059   0.00373  -0.01355   0.01994
   7   34104.7    293.2   0.001814380   0.01751  -0.12778  -0.03125  -0.01448
   8   37467.9    266.9   0.076288881   0.67031  -0.80115  -0.05509  -0.15950
   9   38110.5    262.4   0.006489857   0.05606   0.09043  -0.18765  -0.11256
  10   38841.8    257.5   0.010350642   0.08773   0.29399  -0.03297   0.01453

-----------------------------------------------------------------------------
         ABSORPTION SPECTRUM VIA TRANSITION VELOCITY DIPOLE MOMENTS
-----------------------------------------------------------------------------
State   Energy    Wavelength   fosc        P2         PX        PY        PZ  
        (cm-1)      (nm)                 (au**2)     (au)      (au)      (au) 
-----------------------------------------------------------------------------
   1   19876.8    503.1   0.378048076   0.05136  -0.21948   0.05556   0.01000
   2   27112.4    368.8   0.000791415   0.00015   0.01193   0.00052   0.00203
   3   28500.3    350.9   0.082254125   0.01602   0.12533  -0.00155   0.01765
   4   29595.2    337.9   0.002615453   0.00053   0.02261  -0.00419   0.00030
   5   29730.2    336.4   0.000737693   0.00015  -0.00219  -0.00745   0.00947
   6   30574.3    327.1   0.000399628   0.00008  -0.00157  -0.00554   0.00709
   7   34104.7    293.2   0.000763412   0.00018   0.00078  -0.00989  -0.00892
   8   37467.9    266.9   0.015154237   0.00388   0.05291  -0.02919  -0.01513
   9   38110.5    262.4   0.016097748   0.00419  -0.04430   0.04024   0.02472
  10   38841.8    257.5   0.017083063   0.00453  -0.06680   0.00234  -0.00820

-------------------------------------------------------------------
                             CD SPECTRUM
-------------------------------------------------------------------
State  Energy     Wavelength     R         MX        MY        MZ   
       (cm-1)       (nm)     (1e40*cgs)   (au)      (au)      (au)  
-------------------------------------------------------------------
   1   19876.8    503.1      3.24590  -0.00226  -0.02859   0.02681
   2   27112.4    368.8      0.34299  -0.01917  -0.10249   0.13116
   3   28500.3    350.9      2.79479  -0.00138   0.01453  -0.01185
   4   29595.2    337.9      0.51437   0.00587   0.04715  -0.05876
   5   29730.2    336.4      0.31214  -0.02382   0.11967   0.09215
   6   30574.3    327.1     -0.50717  -0.14693  -0.04071  -0.05411
   7   34104.7    293.2     -8.29505   0.09101   0.48379  -0.63226
   8   37467.9    266.9      0.37327  -0.01585  -0.07593   0.10085
   9   38110.5    262.4     -2.82520   0.04895   0.25242  -0.32826
  10   38841.8    257.5     -0.14208  -0.01731  -0.09321   0.11816

-------------------------------------------------------------------
         CD SPECTRUM VIA TRANSITION VELOCITY DIPOLE MOMENTS        
-------------------------------------------------------------------
State  Energy     Wavelength     R         MX        MY        MZ   
       (cm-1)       (nm)     (1e40*cgs)   (au)      (au)      (au)  
-------------------------------------------------------------------
   1   19876.8    503.1     -4.29478  -0.00226  -0.02859   0.02681
   2   27112.4    368.8     -0.06287  -0.01917  -0.10249   0.13116
   3   28500.3    350.9     -1.46828  -0.00138   0.01453  -0.01185
   4   29595.2    337.9     -0.28726   0.00587   0.04715  -0.05876
   5   29730.2    336.4      0.11585  -0.02382   0.11967   0.09215
   6   30574.3    327.1      0.24499  -0.14693  -0.04071  -0.05411
   7   34104.7    293.2      2.81340   0.09101   0.48379  -0.63226
   8   37467.9    266.9     -0.40761  -0.01585  -0.07593   0.10085
   9   38110.5    262.4     -0.33852   0.04895   0.25242  -0.32826
  10   38841.8    257.5     -0.07983  -0.01731  -0.09321   0.11816

Total run time:     1118.554 sec

           *** ORCA-CIS/TD-DFT FINISHED WITHOUT ERROR ***

Maximum memory used throughout the entire CIS-calculation: 1961.6 MB

-----------------------
CIS/TD-DFT TOTAL ENERGY
-----------------------

    E(SCF)  =  -1821.438454988 Eh
    DE(CIS) =      0.090565504 Eh (Root  1)
    ----------------------------- ---------
    E(tot)  =  -1821.347889484 Eh


-------------------------   --------------------
FINAL SINGLE POINT ENERGY     -1821.347889484067
-------------------------   --------------------


                            ***************************************
                            *     ORCA property calculations      *
                            ***************************************

                                    ---------------------
                                    Active property flags
                                    ---------------------
   (+) Dipole Moment


------------------------------------------------------------------------------
                       ORCA ELECTRIC PROPERTIES CALCULATION
------------------------------------------------------------------------------

Dipole Moment Calculation                       ... on
Quadrupole Moment Calculation                   ... off
Polarizability Calculation                      ... off
GBWName                                         ... pbe0-train-6_job2.gbw
Electron density                                ... pbe0-train-6_job2.scfp
The origin for moment calculation is the CENTER OF MASS  = (-0.271625, -0.109356  0.057885)

-------------
DIPOLE MOMENT
-------------
                                X             Y             Z
Electronic contribution:     -3.24376      -1.31903      -1.59485
Nuclear contribution   :      4.62504       1.88840       2.19875
                        -----------------------------------------
Total Dipole Moment    :      1.38128       0.56938       0.60391
                        -----------------------------------------
Magnitude (a.u.)       :      1.61147
Magnitude (Debye)      :      4.09602



--------------------
Rotational spectrum 
--------------------
 
Rotational constants in cm-1:     0.020048     0.002520     0.002240 
Rotational constants in MHz :   601.008942    75.534555    67.161201 

 Dipole components along the rotational axes: 
x,y,z [a.u.] :    -1.369378     0.849044    -0.027347 
x,y,z [Debye]:    -3.480683     2.158099    -0.069510 

 

Timings for individual modules:

Sum of individual times         ...     1945.201 sec (=  32.420 min)
GTO integral calculation        ...        7.253 sec (=   0.121 min)   0.4 %
SCF iterations                  ...      818.710 sec (=  13.645 min)  42.1 %
CIS module                      ...     1119.238 sec (=  18.654 min)  57.5 %



                             ****ORCA TERMINATED NORMALLY****
TOTAL RUN TIME: 0 days 6 hours 16 minutes 42 seconds 509 msec
