
                                 *****************
                                 * O   R   C   A *
                                 *****************

                                            #,                                       
                                            ###                                      
                                            ####                                     
                                            #####                                    
                                            ######                                   
                                           ########,                                 
                                     ,,################,,,,,                         
                               ,,#################################,,                 
                          ,,##########################################,,             
                       ,#########################################, ''#####,          
                    ,#############################################,,   '####,        
                  ,##################################################,,,,####,       
                ,###########''''           ''''###############################       
              ,#####''   ,,,,##########,,,,          '''####'''          '####       
            ,##' ,,,,###########################,,,                        '##       
           ' ,,###''''                  '''############,,,                           
         ,,##''                                '''############,,,,        ,,,,,,###''
      ,#''                                            '''#######################'''  
     '                                                          ''''####''''         
             ,#######,   #######,   ,#######,      ##                                
            ,#'     '#,  ##    ##  ,#'     '#,    #''#        ######   ,####,        
            ##       ##  ##   ,#'  ##            #'  '#       #        #'  '#        
            ##       ##  #######   ##           ,######,      #####,   #    #        
            '#,     ,#'  ##    ##  '#,     ,#' ,#      #,         ##   #,  ,#        
             '#######'   ##     ##  '#######'  #'      '#     #####' # '####'        



                  #######################################################
                  #                        -***-                        #
                  #          Department of theory and spectroscopy      #
                  #    Directorship and core code : Frank Neese         #
                  #        Max Planck Institute fuer Kohlenforschung    #
                  #                Kaiser Wilhelm Platz 1               #
                  #                 D-45470 Muelheim/Ruhr               #
                  #                      Germany                        #
                  #                                                     #
                  #                  All rights reserved                #
                  #                        -***-                        #
                  #######################################################


                         Program Version 5.0.2 -  RELEASE  -


 With contributions from (in alphabetic order):
   Daniel Aravena         : Magnetic Suceptibility
   Michael Atanasov       : Ab Initio Ligand Field Theory (pilot matlab implementation)
   Alexander A. Auer      : GIAO ZORA, VPT2 properties, NMR spectrum
   Ute Becker             : Parallelization
   Giovanni Bistoni       : ED, misc. LED, open-shell LED, HFLD
   Martin Brehm           : Molecular dynamics
   Dmytro Bykov           : SCF Hessian
   Vijay G. Chilkuri      : MRCI spin determinant printing, contributions to CSF-ICE
   Dipayan Datta          : RHF DLPNO-CCSD density
   Achintya Kumar Dutta   : EOM-CC, STEOM-CC
   Dmitry Ganyushin       : Spin-Orbit,Spin-Spin,Magnetic field MRCI
   Miquel Garcia          : C-PCM and meta-GGA Hessian, CC/C-PCM, Gaussian charge scheme
   Yang Guo               : DLPNO-NEVPT2, F12-NEVPT2, CIM, IAO-localization
   Andreas Hansen         : Spin unrestricted coupled pair/coupled cluster methods
   Benjamin Helmich-Paris : MC-RPA, TRAH-SCF, COSX integrals
   Lee Huntington         : MR-EOM, pCC
   Robert Izsak           : Overlap fitted RIJCOSX, COSX-SCS-MP3, EOM
   Marcus Kettner         : VPT2
   Christian Kollmar      : KDIIS, OOCD, Brueckner-CCSD(T), CCSD density, CASPT2, CASPT2-K
   Simone Kossmann        : Meta GGA functionals, TD-DFT gradient, OOMP2, MP2 Hessian
   Martin Krupicka        : Initial AUTO-CI
   Lucas Lang             : DCDCAS
   Marvin Lechner         : AUTO-CI (C++ implementation), FIC-MRCC
   Dagmar Lenk            : GEPOL surface, SMD
   Dimitrios Liakos       : Extrapolation schemes; Compound Job, initial MDCI parallelization
   Dimitrios Manganas     : Further ROCIS development; embedding schemes
   Dimitrios Pantazis     : SARC Basis sets
   Anastasios Papadopoulos: AUTO-CI, single reference methods and gradients
   Taras Petrenko         : DFT Hessian,TD-DFT gradient, ASA, ECA, R-Raman, ABS, FL, XAS/XES, NRVS
   Peter Pinski           : DLPNO-MP2, DLPNO-MP2 Gradient
   Christoph Reimann      : Effective Core Potentials
   Marius Retegan         : Local ZFS, SOC
   Christoph Riplinger    : Optimizer, TS searches, QM/MM, DLPNO-CCSD(T), (RO)-DLPNO pert. Triples
   Tobias Risthaus        : Range-separated hybrids, TD-DFT gradient, RPA, STAB
   Michael Roemelt        : Original ROCIS implementation
   Masaaki Saitow         : Open-shell DLPNO-CCSD energy and density
   Barbara Sandhoefer     : DKH picture change effects
   Avijit Sen             : IP-ROCIS
   Kantharuban Sivalingam : CASSCF convergence, NEVPT2, FIC-MRCI
   Bernardo de Souza      : ESD, SOC TD-DFT
   Georgi Stoychev        : AutoAux, RI-MP2 NMR, DLPNO-MP2 response
   Willem Van den Heuvel  : Paramagnetic NMR
   Boris Wezisla          : Elementary symmetry handling
   Frank Wennmohs         : Technical directorship


 We gratefully acknowledge several colleagues who have allowed us to
 interface, adapt or use parts of their codes:
   Stefan Grimme, W. Hujo, H. Kruse, P. Pracht,  : VdW corrections, initial TS optimization,
                  C. Bannwarth, S. Ehlert          DFT functionals, gCP, sTDA/sTD-DF
   Ed Valeev, F. Pavosevic, A. Kumar             : LibInt (2-el integral package), F12 methods
   Garnet Chan, S. Sharma, J. Yang, R. Olivares  : DMRG
   Ulf Ekstrom                                   : XCFun DFT Library
   Mihaly Kallay                                 : mrcc  (arbitrary order and MRCC methods)
   Jiri Pittner, Ondrej Demel                    : Mk-CCSD
   Frank Weinhold                                : gennbo (NPA and NBO analysis)
   Christopher J. Cramer and Donald G. Truhlar   : smd solvation model
   Lars Goerigk                                  : TD-DFT with DH, B97 family of functionals
   V. Asgeirsson, H. Jonsson                     : NEB implementation
   FAccTs GmbH                                   : IRC, NEB, NEB-TS, DLPNO-Multilevel, CI-OPT
                                                   MM, QMMM, 2- and 3-layer-ONIOM, Crystal-QMMM,
                                                   LR-CPCM, SF, NACMEs, symmetry and pop. for TD-DFT,
                                                   nearIR, NL-DFT gradient (VV10), updates on ESD,
                                                   ML-optimized integration grids
   S Lehtola, MJT Oliveira, MAL Marques          : LibXC Library
   Liviu Ungur et al                             : ANISO software


 Your calculation uses the libint2 library for the computation of 2-el integrals
 For citations please refer to: http://libint.valeyev.net

 Your ORCA version has been built with support for libXC version: 5.1.0
 For citations please refer to: https://tddft.org/programs/libxc/

 This ORCA versions uses:
   CBLAS   interface :  Fast vector & matrix operations
   LAPACKE interface :  Fast linear algebra routines
   SCALAPACK package :  Parallel linear algebra routines
   Shared memory     :  Shared parallel matrices
   BLAS/LAPACK       :  OpenBLAS 0.3.15  USE64BITINT DYNAMIC_ARCH NO_AFFINITY Haswell SINGLE_THREADED
        Core in use  :  Haswell
   Copyright (c) 2011-2014, The OpenBLAS Project


Your calculation utilizes the atom-pairwise dispersion correction
with the zero-damping scheme (D30)
Cite in your paper:
S.Grimme, J.Antony, S.Ehrlich and H.Krieg, J.Chem.Phys., 132, (2010), 154104 
   

Your calculation utilizes the SMD solvation module
Please cite in your paper:
A.V. Marenich, C.J. Cramer, D.G. Truhlar J. Phys. Chem. B, 113, (2009), 6378 

XCFun DFT library Copyright 2009-2010 Ulf Ekstrom and contributors.
See http://admol.org/xcfun for more information.
This is free software; see the source code for copying conditions.
There is ABSOLUTELY NO WARRANTY; not even for MERCHANTABILITY or FITNESS FOR A PARTICULAR PURPOSE.
For details see the documentation.
Scientific users of this library should cite U. Ekstrom, L. Visscher, R. Bast, A. J. Thorvaldsen and K. Ruud;
J.Chem.Theor.Comp. 2010, DOI: 10.1021/ct100117s
XCFun Version 0.99 

================================================================================

----- Orbital basis set information -----
Your calculation utilizes the basis: aug-cc-pVTZ 
    H, B-Ne : Obtained from the ccRepo (grant-hill.group.shef.ac.uk/ccrepo) Feb. 2017
              R. A. Kendall, T. H. Dunning, Jr., R. J. Harrison, J. Chem. Phys. 96, 6796 (1992)
         He : Obtained from the ccRepo (grant-hill.group.shef.ac.uk/ccrepo) Feb. 2017
              D. E. Woon, T. H. Dunning, Jr., J. Chem. Phys. 100, 2975 (1994)
  Li-Be, Na : Obtained from the ccRepo (grant-hill.group.shef.ac.uk/ccrepo) Feb. 2017
              B. P. Prascher, D. E. Woon, K. A. Peterson, T. H. Dunning, Jr., A. K. Wilson, Theor. Chem. Acc. 128, 69 (2011)
         Mg : Obtained from the Peterson Research Group Website (tyr0.chem.wsu.edu/~kipeters) Feb. 2017
              B. P. Prascher, D. E. Woon, K. A. Peterson, T. H. Dunning, Jr., A. K. Wilson, Theor. Chem. Acc. 128, 69 (2011)
      Al-Ar : Obtained from the ccRepo (grant-hill.group.shef.ac.uk/ccrepo) Feb. 2017
              D. E. Woon, T. H. Dunning, Jr., J. Chem. Phys. 98, 1358 (1993)
      Sc-Zn : Obtained from the ccRepo (grant-hill.group.shef.ac.uk/ccrepo) Feb. 2017
              N. B. Balabanov, K. A. Peterson, J. Chem. Phys. 123, 064107 (2005)
              N. B. Balabanov, K. A. Peterson, J. Chem. Phys. 125, 074110 (2006)
      Ga-Kr : Obtained from the ccRepo (grant-hill.group.shef.ac.uk/ccrepo) Feb. 2017
              A. K. Wilson, D. E. Woon, K. A. Peterson, T. H. Dunning, Jr., J. Chem. Phys. 110, 7667 (1999)
     Ag, Au : Obtained from the Peterson Research Group Website (tyr0.chem.wsu.edu/~kipeters) Feb. 2017
              K. A. Peterson, C. Puzzarini, Theor. Chem. Acc. 114, 283 (2005)

The basis set includes element-specific modifications.

Your calculation utilizes the basis: cc-pVTZ 
       H, B-Ne : Obtained from the ccRepo (grant-hill.group.shef.ac.uk/ccrepo) Feb. 2017
                 T. H. Dunning, Jr., J. Chem. Phys. 90, 1007 (1989)
            He : Obtained from the ccRepo (grant-hill.group.shef.ac.uk/ccrepo) Feb. 2017
                 D. E. Woon, T. H. Dunning, Jr., J. Chem. Phys. 100, 2975 (1994)
  Li-Be, Na-Mg : Obtained from the ccRepo (grant-hill.group.shef.ac.uk/ccrepo) Feb. 2017
                 B. P. Prascher, D. E. Woon, K. A. Peterson, T. H. Dunning, Jr., A. K. Wilson, Theor. Chem. Acc. 128, 69 (2011)
         Al-Ar : Obtained from the ccRepo (grant-hill.group.shef.ac.uk/ccrepo) Feb. 2017
                 D. E. Woon, T. H. Dunning, Jr., J. Chem. Phys. 98, 1358 (1993)
            Ca : Obtained from the Peterson Research Group Website (tyr0.chem.wsu.edu/~kipeters) Feb. 2017
                 J. Koput, K. A. Peterson, J. Phys. Chem. 106, 9595 (2002)
         Sc-Zn : Obtained from the ccRepo (grant-hill.group.shef.ac.uk/ccrepo) Feb. 2017
                 N. B. Balabanov, K. A. Peterson, J. Chem. Phys. 123, 064107 (2005)
                 N. B. Balabanov, K. A. Peterson, J. Chem. Phys. 125, 074110 (2006)
         Ga-Kr : Obtained from the ccRepo (grant-hill.group.shef.ac.uk/ccrepo) Feb. 2017
                 A. K. Wilson, D. E. Woon, K. A. Peterson, T. H. Dunning, Jr., J. Chem. Phys. 110, 7667 (1999)
             Y : Obtained from the ccRepo (grant-hill.group.shef.ac.uk/ccrepo) Feb. 2017
                 K. A. Peterson, D. Figgen, M. Dolg, H. Stoll, J. Chem. Phys. 126, 124101 (2007)
        Ag, Au : Obtained from the Peterson Research Group Website (tyr0.chem.wsu.edu/~kipeters) Feb. 2017
                 K. A. Peterson, C. Puzzarini, Theor. Chem. Acc. 114, 283 (2005)

----- AuxJ basis set information -----
Your calculation utilizes the auxiliary basis: aug-cc-pVTZ/JK 
  H, B-F, Al-Cl, Ga-Br : Obtained from the TURBOMOLE 7.0 basis set library

The basis set includes element-specific modifications.

Your calculation utilizes the auxiliary basis: cc-pVTZ/JK 
  H, B-F, Al-Cl, Ga-Br : Obtained from the TURBOMOLE 7.0 basis set library

----- AuxC basis set information -----
Your calculation utilizes the auxiliary basis: aug-cc-pVTZ/C 
  H-He, B-F, Al-Ar, Ga-Kr : Obtained from the EMSL Basis Set Exchange (bse.pnl.gov) Feb. 2017
                            F. Weigend, A. Kohn, C. Hattig, J. Chem. Phys. 116, 3175 (2002)
                   Be, Mg : Obtained from the TURBOMOLE 7.0 basis set library
                            C. Haettig, Phys. Chem. Chem. Phys. 7, 59 (2005)
                       Ne : Obtained from the EMSL Basis Set Exchange (bse.pnl.gov) Feb. 2017
                            C. Haettig, Phys. Chem. Chem. Phys. 7, 59 (2005)
                            F. Weigend, A. Kohn, C. Hattig, J. Chem. Phys. 116, 3175 (2002)
                    Sc-Zn : Obtained from the EMSL Basis Set Exchange (bse.pnl.gov) Feb. 2017
                            J. G. Hill, J. A. Platts, J. Chem. Phys. 128, 044104 (2008)

The basis set includes element-specific modifications.

Your calculation utilizes the auxiliary basis: cc-pVTZ/C 
  Obtained from the EMSL Basis Set Exchange (bse.pnl.gov) Feb. 2017
  H-He, B-F, Al-Ar, Ga-Kr : F. Weigend, A. Kohn, C. Hattig, J. Chem. Phys. 116, 3175 (2002)
             Li-Be, Na-Mg : C. Haettig, Phys. Chem. Chem. Phys. 7, 59 (2005)
                       Ne : C. Haettig, Phys. Chem. Chem. Phys. 7, 59 (2005)
                            F. Weigend, A. Kohn, C. Hattig, J. Chem. Phys. 116, 3175 (2002)
                    Sc-Zn : J. G. Hill, J. A. Platts, J. Chem. Phys. 128, 044104 (2008)

================================================================================
                                        WARNINGS
                       Please study these warnings very carefully!
================================================================================


WARNING: Geometry Optimization
  ===> : Switching off AutoStart
         For restart on a previous wavefunction, please use MOREAD

INFO   : the flag for use of the SHARK integral package has been found!



***************************************
The coordinates will be read from file: 
***************************************


Your calculation utilizes the atom-pairwise dispersion correction
with the zero-damping scheme (D30)
Cite in your paper:
S.Grimme, J.Antony, S.Ehrlich and H.Krieg, J.Chem.Phys., 132, (2010), 154104 
   

Your calculation utilizes the SMD solvation module
Please cite in your paper:
A.V. Marenich, C.J. Cramer, D.G. Truhlar J. Phys. Chem. B, 113, (2009), 6378 

XCFun DFT library Copyright 2009-2010 Ulf Ekstrom and contributors.
See http://admol.org/xcfun for more information.
This is free software; see the source code for copying conditions.
There is ABSOLUTELY NO WARRANTY; not even for MERCHANTABILITY or FITNESS FOR A PARTICULAR PURPOSE.
For details see the documentation.
Scientific users of this library should cite U. Ekstrom, L. Visscher, R. Bast, A. J. Thorvaldsen and K. Ruud;
J.Chem.Theor.Comp. 2010, DOI: 10.1021/ct100117s
XCFun Version 0.99 

================================================================================

----- Orbital basis set information -----
Your calculation utilizes the basis: aug-cc-pVTZ 
    H, B-Ne : Obtained from the ccRepo (grant-hill.group.shef.ac.uk/ccrepo) Feb. 2017
              R. A. Kendall, T. H. Dunning, Jr., R. J. Harrison, J. Chem. Phys. 96, 6796 (1992)
         He : Obtained from the ccRepo (grant-hill.group.shef.ac.uk/ccrepo) Feb. 2017
              D. E. Woon, T. H. Dunning, Jr., J. Chem. Phys. 100, 2975 (1994)
  Li-Be, Na : Obtained from the ccRepo (grant-hill.group.shef.ac.uk/ccrepo) Feb. 2017
              B. P. Prascher, D. E. Woon, K. A. Peterson, T. H. Dunning, Jr., A. K. Wilson, Theor. Chem. Acc. 128, 69 (2011)
         Mg : Obtained from the Peterson Research Group Website (tyr0.chem.wsu.edu/~kipeters) Feb. 2017
              B. P. Prascher, D. E. Woon, K. A. Peterson, T. H. Dunning, Jr., A. K. Wilson, Theor. Chem. Acc. 128, 69 (2011)
      Al-Ar : Obtained from the ccRepo (grant-hill.group.shef.ac.uk/ccrepo) Feb. 2017
              D. E. Woon, T. H. Dunning, Jr., J. Chem. Phys. 98, 1358 (1993)
      Sc-Zn : Obtained from the ccRepo (grant-hill.group.shef.ac.uk/ccrepo) Feb. 2017
              N. B. Balabanov, K. A. Peterson, J. Chem. Phys. 123, 064107 (2005)
              N. B. Balabanov, K. A. Peterson, J. Chem. Phys. 125, 074110 (2006)
      Ga-Kr : Obtained from the ccRepo (grant-hill.group.shef.ac.uk/ccrepo) Feb. 2017
              A. K. Wilson, D. E. Woon, K. A. Peterson, T. H. Dunning, Jr., J. Chem. Phys. 110, 7667 (1999)
     Ag, Au : Obtained from the Peterson Research Group Website (tyr0.chem.wsu.edu/~kipeters) Feb. 2017
              K. A. Peterson, C. Puzzarini, Theor. Chem. Acc. 114, 283 (2005)

The basis set includes element-specific modifications.

Your calculation utilizes the basis: cc-pVTZ 
       H, B-Ne : Obtained from the ccRepo (grant-hill.group.shef.ac.uk/ccrepo) Feb. 2017
                 T. H. Dunning, Jr., J. Chem. Phys. 90, 1007 (1989)
            He : Obtained from the ccRepo (grant-hill.group.shef.ac.uk/ccrepo) Feb. 2017
                 D. E. Woon, T. H. Dunning, Jr., J. Chem. Phys. 100, 2975 (1994)
  Li-Be, Na-Mg : Obtained from the ccRepo (grant-hill.group.shef.ac.uk/ccrepo) Feb. 2017
                 B. P. Prascher, D. E. Woon, K. A. Peterson, T. H. Dunning, Jr., A. K. Wilson, Theor. Chem. Acc. 128, 69 (2011)
         Al-Ar : Obtained from the ccRepo (grant-hill.group.shef.ac.uk/ccrepo) Feb. 2017
                 D. E. Woon, T. H. Dunning, Jr., J. Chem. Phys. 98, 1358 (1993)
            Ca : Obtained from the Peterson Research Group Website (tyr0.chem.wsu.edu/~kipeters) Feb. 2017
                 J. Koput, K. A. Peterson, J. Phys. Chem. 106, 9595 (2002)
         Sc-Zn : Obtained from the ccRepo (grant-hill.group.shef.ac.uk/ccrepo) Feb. 2017
                 N. B. Balabanov, K. A. Peterson, J. Chem. Phys. 123, 064107 (2005)
                 N. B. Balabanov, K. A. Peterson, J. Chem. Phys. 125, 074110 (2006)
         Ga-Kr : Obtained from the ccRepo (grant-hill.group.shef.ac.uk/ccrepo) Feb. 2017
                 A. K. Wilson, D. E. Woon, K. A. Peterson, T. H. Dunning, Jr., J. Chem. Phys. 110, 7667 (1999)
             Y : Obtained from the ccRepo (grant-hill.group.shef.ac.uk/ccrepo) Feb. 2017
                 K. A. Peterson, D. Figgen, M. Dolg, H. Stoll, J. Chem. Phys. 126, 124101 (2007)
        Ag, Au : Obtained from the Peterson Research Group Website (tyr0.chem.wsu.edu/~kipeters) Feb. 2017
                 K. A. Peterson, C. Puzzarini, Theor. Chem. Acc. 114, 283 (2005)

----- AuxJ basis set information -----
Your calculation utilizes the auxiliary basis: aug-cc-pVTZ/JK 
  H, B-F, Al-Cl, Ga-Br : Obtained from the TURBOMOLE 7.0 basis set library

The basis set includes element-specific modifications.

Your calculation utilizes the auxiliary basis: cc-pVTZ/JK 
  H, B-F, Al-Cl, Ga-Br : Obtained from the TURBOMOLE 7.0 basis set library

----- AuxC basis set information -----
Your calculation utilizes the auxiliary basis: aug-cc-pVTZ/C 
  H-He, B-F, Al-Ar, Ga-Kr : Obtained from the EMSL Basis Set Exchange (bse.pnl.gov) Feb. 2017
                            F. Weigend, A. Kohn, C. Hattig, J. Chem. Phys. 116, 3175 (2002)
                   Be, Mg : Obtained from the TURBOMOLE 7.0 basis set library
                            C. Haettig, Phys. Chem. Chem. Phys. 7, 59 (2005)
                       Ne : Obtained from the EMSL Basis Set Exchange (bse.pnl.gov) Feb. 2017
                            C. Haettig, Phys. Chem. Chem. Phys. 7, 59 (2005)
                            F. Weigend, A. Kohn, C. Hattig, J. Chem. Phys. 116, 3175 (2002)
                    Sc-Zn : Obtained from the EMSL Basis Set Exchange (bse.pnl.gov) Feb. 2017
                            J. G. Hill, J. A. Platts, J. Chem. Phys. 128, 044104 (2008)

The basis set includes element-specific modifications.

Your calculation utilizes the auxiliary basis: cc-pVTZ/C 
  Obtained from the EMSL Basis Set Exchange (bse.pnl.gov) Feb. 2017
  H-He, B-F, Al-Ar, Ga-Kr : F. Weigend, A. Kohn, C. Hattig, J. Chem. Phys. 116, 3175 (2002)
             Li-Be, Na-Mg : C. Haettig, Phys. Chem. Chem. Phys. 7, 59 (2005)
                       Ne : C. Haettig, Phys. Chem. Chem. Phys. 7, 59 (2005)
                            F. Weigend, A. Kohn, C. Hattig, J. Chem. Phys. 116, 3175 (2002)
                    Sc-Zn : J. G. Hill, J. A. Platts, J. Chem. Phys. 128, 044104 (2008)

================================================================================
                                        WARNINGS
                       Please study these warnings very carefully!
================================================================================

INFO   : Checking CIS options ...

INFO   : the flag for use of the SHARK integral package has been found!

================================================================================
                                       INPUT FILE
================================================================================
NAME = wb97x-d3-train-6.inp
|  1> ! wb97x-d3 aug-cc-PVTZ RIJCOSX Opt
|  2> %maxcore 4000
|  3> %basis
|  4>  AuxJ "aug-cc-PVTZ/JK"
|  5>  AuxC "aug-cc-PVTZ/C"
|  6>  newGTO H "cc-PVTZ" end
|  7>  newAuxJGTO H "cc-PVTZ/JK" end
|  8>  newAuxCGTO H "cc-PVTZ/C" end
|  9> end
| 10> %cpcm
| 11>  SMD true
| 12>  SMDsolvent "toluene"
| 13> end
| 14> %pal nprocs 4 end
| 15> * xyz 0 1
| 16> C         -5.31150        2.61790        1.32570
| 17> O         -4.65010        1.57880        0.62110
| 18> C         -5.43770        0.76910       -0.11470
| 19> O         -6.63310        0.89650       -0.19020
| 20> C         -4.64760       -0.26950       -0.79620
| 21> C         -5.35990       -1.18080       -1.59740
| 22> N         -5.92160       -1.93440       -2.25580
| 23> C         -3.28260       -0.38980       -0.68930
| 24> C         -2.48560       -1.38640       -1.33270
| 25> C         -1.16260       -1.28720       -1.06210
| 26> C         -0.83540       -0.21040       -0.19360
| 27> C          0.41760        0.12990        0.25070
| 28> C          0.74620        1.20760        1.11690
| 29> C          2.07100        1.29910        1.38500
| 30> C          2.84920        0.29380        0.74020
| 31> C          4.21240        0.11950        0.81350
| 32> C          5.03340        0.96040        1.57580
| 33> N          5.69720        1.65530        2.20440
| 34> C          4.78920       -0.99170        0.05580
| 35> O          4.09660       -1.73700       -0.61280
| 36> O          6.10900       -1.09560        0.17300
| 37> C          6.71900       -2.15840       -0.54510
| 38> S          1.86150       -0.76880       -0.21460
| 39> S         -2.28500        0.67120        0.26550
| 40> H         -6.03230        2.19710        2.02970
| 41> H         -4.53570        3.16730        1.85220
| 42> H         -5.84090        3.26980        0.62790
| 43> H         -2.93840       -2.12910       -1.96550
| 44> H         -0.39970       -1.94040       -1.44770
| 45> H         -0.01040        1.86800        1.50330
| 46> H          2.53440        2.03820        2.01450
| 47> H          7.78330       -2.08840       -0.33750
| 48> H          6.32330       -3.11920       -0.20950
| 49> H          6.52710       -2.05250       -1.61490
| 50> *
| 51> 
| 52> 
| 53> $new_job
| 54> ! wb97x-d3 aug-cc-PVTZ RIJCOSX SP
| 55> %maxcore 4000
| 56> %basis
| 57>  AuxJ "aug-cc-PVTZ/JK"
| 58>  AuxC "aug-cc-PVTZ/C"
| 59>  newGTO H "cc-PVTZ" end
| 60>  newAuxJGTO H "cc-PVTZ/JK" end
| 61>  newAuxCGTO H "cc-PVTZ/C" end
| 62> end
| 63> %cpcm
| 64>  SMD true
| 65>  SMDsolvent "toluene"
| 66> end
| 67> %pal nprocs 4 end
| 68> %tddft
| 69>  nroots 10
| 70>  maxdim 7
| 71> end
| 72> * xyzfile 0 1
| 73> 
| 74>                          ****END OF INPUT****
================================================================================


                 $$$$$$$$$$$$$$$$$$$$$$$$$$$$$$$$$$$$$$$$$$$$$$ 
                 $ THERE ARE  2 JOBS TO BE PROCESSED THIS RUN $
                 $$$$$$$$$$$$$$$$$$$$$$$$$$$$$$$$$$$$$$$$$$$$$$ 




                 $$$$$$$$$$$$$$$$  JOB NUMBER  1 $$$$$$$$$$$$$$


                       *****************************
                       * Geometry Optimization Run *
                       *****************************

Geometry optimization settings:
Update method            Update   .... BFGS
Choice of coordinates    CoordSys .... Z-matrix Internals
Initial Hessian          InHess   .... Almoef's Model

Convergence Tolerances:
Energy Change            TolE     ....  5.0000e-06 Eh
Max. Gradient            TolMAXG  ....  3.0000e-04 Eh/bohr
RMS Gradient             TolRMSG  ....  1.0000e-04 Eh/bohr
Max. Displacement        TolMAXD  ....  4.0000e-03 bohr
RMS Displacement         TolRMSD  ....  2.0000e-03 bohr
Strict Convergence                ....  False
------------------------------------------------------------------------------
                        ORCA OPTIMIZATION COORDINATE SETUP
------------------------------------------------------------------------------

The optimization will be done in new redundant internal coordinates
Making redundant internal coordinates   ...  (new redundants) done
Evaluating the initial hessian          ...  (Almloef) done
Evaluating the coordinates              ...  done
Calculating the B-matrix                .... done
Calculating the G-matrix                .... done
Diagonalizing the G-matrix              .... done
Small eigenvalue found = 1.655e-03
Small eigenvalue found = 3.776e-03
Small eigenvalue found = 6.630e-03
Small eigenvalue found = 1.828e-02
Small eigenvalue found = 2.075e-02
The first mode is                       ....   57
The number of degrees of freedom        ....   96

    -----------------------------------------------------------------
                    Redundant Internal Coordinates


    -----------------------------------------------------------------
         Definition                    Initial Value    Approx d2E/dq
    -----------------------------------------------------------------
      1. B(O   1,C   0)                  1.4190         0.502995   
      2. B(C   2,O   1)                  1.3481         0.652755   
      3. B(O   3,C   2)                  1.2045         1.106033   
      4. B(C   4,C   2)                  1.4722         0.461939   
      5. B(C   5,C   4)                  1.4070         0.586885   
      6. B(N   6,C   5)                  1.1476         1.363520   
      7. B(C   7,C   4)                  1.3745         0.661516   
      8. B(C   8,C   7)                  1.4291         0.541159   
      9. B(C   9,C   8)                  1.3540         0.713064   
     10. B(C  10,C   9)                  1.4216         0.556387   
     11. B(C  11,C  10)                  1.3723         0.666765   
     12. B(C  12,C  11)                  1.4212         0.557202   
     13. B(C  13,C  12)                  1.3547         0.711180   
     14. B(C  14,C  13)                  1.4255         0.548446   
     15. B(C  15,C  14)                  1.3763         0.657164   
     16. B(C  16,C  15)                  1.4008         0.600481   
     17. B(N  17,C  16)                  1.1483         1.359721   
     18. B(C  18,C  15)                  1.4634         0.477106   
     19. B(O  19,C  18)                  1.2175         1.054782   
     20. B(O  20,C  18)                  1.3291         0.700003   
     21. B(C  21,O  20)                  1.4203         0.500611   
     22. B(S  22,C  14)                  1.7368         0.471284   
     23. B(S  22,C  11)                  1.7632         0.427589   
     24. B(S  23,C  10)                  1.7576         0.436461   
     25. B(S  23,C   7)                  1.7414         0.463261   
     26. B(H  24,C   0)                  1.0919         0.357598   
     27. B(H  25,C   0)                  1.0867         0.364497   
     28. B(H  26,C   0)                  1.0919         0.357645   
     29. B(H  27,C   8)                  1.0757         0.379564   
     30. B(H  28,C   9)                  1.0758         0.379365   
     31. B(H  29,C  12)                  1.0760         0.379040   
     32. B(H  30,C  13)                  1.0758         0.379427   
     33. B(H  31,C  21)                  1.0866         0.364606   
     34. B(H  32,C  21)                  1.0919         0.357537   
     35. B(H  33,C  21)                  1.0920         0.357435   
     36. A(O   1,C   0,H  25)          106.1428         0.339323   
     37. A(O   1,C   0,H  26)          110.2341         0.338250   
     38. A(O   1,C   0,H  24)          110.2199         0.338243   
     39. A(H  24,C   0,H  25)          110.7159         0.291076   
     40. A(H  25,C   0,H  26)          110.7279         0.291082   
     41. A(H  24,C   0,H  26)          108.7885         0.290209   
     42. A(C   0,O   1,C   2)          116.0098         0.416513   
     43. A(O   1,C   2,C   4)          111.2749         0.412927   
     44. A(O   3,C   2,C   4)          125.3245         0.453991   
     45. A(O   1,C   2,O   3)          123.4006         0.480455   
     46. A(C   2,C   4,C   5)          116.6679         0.407845   
     47. A(C   5,C   4,C   7)          119.3641         0.434842   
     48. A(C   2,C   4,C   7)          123.9680         0.416601   
     49. L(C   4,C   5,N   6,C   2, 1) 181.1187         0.493005   
     50. L(C   4,C   5,N   6,C   2, 2) 180.0151         0.493005   
     51. A(C   8,C   7,S  23)          110.6244         0.424238   
     52. A(C   4,C   7,C   8)          125.4414         0.428550   
     53. A(C   4,C   7,S  23)          123.9342         0.439827   
     54. A(C   7,C   8,C   9)          113.8186         0.434366   
     55. A(C   7,C   8,H  27)          120.7693         0.347976   
     56. A(C   9,C   8,H  27)          125.4120         0.364661   
     57. A(C  10,C   9,H  28)          121.0424         0.349577   
     58. A(C   8,C   9,C  10)          113.7336         0.436542   
     59. A(C   8,C   9,H  28)          125.2239         0.364628   
     60. A(C   9,C  10,C  11)          126.5694         0.431302   
     61. A(C  11,C  10,S  23)          122.9626         0.435747   
     62. A(C   9,C  10,S  23)          110.4680         0.421830   
     63. A(C  10,C  11,C  12)          126.6193         0.431415   
     64. A(C  10,C  11,S  22)          122.4030         0.434139   
     65. A(C  12,C  11,S  22)          110.9776         0.420397   
     66. A(C  11,C  12,C  13)          113.4496         0.436450   
     67. A(C  13,C  12,H  29)          125.1046         0.364410   
     68. A(C  11,C  12,H  29)          121.4458         0.349613   
     69. A(C  14,C  13,H  30)          120.9345         0.348740   
     70. A(C  12,C  13,H  30)          125.6931         0.364474   
     71. A(C  12,C  13,C  14)          113.3724         0.435206   
     72. A(C  15,C  14,S  22)          121.0045         0.440667   
     73. A(C  13,C  14,S  22)          111.6969         0.426564   
     74. A(C  13,C  14,C  15)          127.2987         0.429072   
     75. A(C  16,C  15,C  18)          120.4358         0.411854   
     76. A(C  14,C  15,C  18)          117.3226         0.418513   
     77. A(C  14,C  15,C  16)          122.2416         0.436120   
     78. L(C  15,C  16,N  17,C  18, 2) 180.0676         0.494848   
     79. L(C  15,C  16,N  17,C  18, 1) 180.5672         0.494848   
     80. A(O  19,C  18,O  20)          124.4369         0.482448   
     81. A(C  15,C  18,O  20)          113.8976         0.420506   
     82. A(C  15,C  18,O  19)          121.6654         0.452742   
     83. A(C  18,O  20,C  21)          116.1295         0.421377   
     84. A(H  32,C  21,H  33)          108.8284         0.290175   
     85. A(O  20,C  21,H  33)          110.3201         0.337949   
     86. A(H  31,C  21,H  32)          110.6650         0.291081   
     87. A(O  20,C  21,H  32)          110.3276         0.337965   
     88. A(O  20,C  21,H  31)          106.0134         0.339071   
     89. A(H  31,C  21,H  33)          110.6732         0.291068   
     90. A(C  11,S  22,C  14)           90.5035         0.430470   
     91. A(C   7,S  23,C  10)           91.3553         0.430731   
     92. D(C   2,O   1,C   0,H  25)   -179.6820         0.020010   
     93. D(C   2,O   1,C   0,H  24)     60.3809         0.020010   
     94. D(C   2,O   1,C   0,H  26)    -59.7229         0.020010   
     95. D(C   4,C   2,O   1,C   0)   -179.8596         0.031512   
     96. D(O   3,C   2,O   1,C   0)      0.0977         0.031512   
     97. D(C   5,C   4,C   2,O   3)     -0.0122         0.014535   
     98. D(C   7,C   4,C   2,O   3)   -179.9447         0.014535   
     99. D(C   5,C   4,C   2,O   1)    179.9441         0.014535   
    100. D(C   7,C   4,C   2,O   1)      0.0116         0.014535   
    101. D(S  23,C   7,C   4,C   2)     -0.1488         0.030546   
    102. D(C   8,C   7,C   4,C   5)     -0.1197         0.030546   
    103. D(S  23,C   7,C   4,C   5)    179.9204         0.030546   
    104. D(C   8,C   7,C   4,C   2)    179.8111         0.030546   
    105. D(C   9,C   8,C   7,S  23)      0.0582         0.020013   
    106. D(C   9,C   8,C   7,C   4)   -179.9062         0.020013   
    107. D(H  27,C   8,C   7,S  23)   -179.9841         0.020013   
    108. D(H  27,C   8,C   7,C   4)      0.0515         0.020013   
    109. D(H  28,C   9,C   8,H  27)      0.0099         0.035925   
    110. D(H  28,C   9,C   8,C   7)    179.9653         0.035925   
    111. D(C  10,C   9,C   8,H  27)    179.9851         0.035925   
    112. D(C  10,C   9,C   8,C   7)     -0.0596         0.035925   
    113. D(S  23,C  10,C   9,H  28)   -179.9899         0.021195   
    114. D(S  23,C  10,C   9,C   8)      0.0337         0.021195   
    115. D(C  11,C  10,C   9,H  28)     -0.0384         0.021195   
    116. D(C  11,C  10,C   9,C   8)    179.9853         0.021195   
    117. D(S  22,C  11,C  10,S  23)    179.7664         0.031069   
    118. D(S  22,C  11,C  10,C   9)     -0.1795         0.031069   
    119. D(C  12,C  11,C  10,S  23)     -0.1808         0.031069   
    120. D(C  12,C  11,C  10,C   9)    179.8733         0.031069   
    121. D(C  13,C  12,C  11,S  22)     -0.0190         0.021259   
    122. D(C  13,C  12,C  11,C  10)    179.9333         0.021259   
    123. D(H  29,C  12,C  11,S  22)    179.9472         0.021259   
    124. D(H  29,C  12,C  11,C  10)     -0.1006         0.021259   
    125. D(H  30,C  13,C  12,H  29)      0.0217         0.035719   
    126. D(H  30,C  13,C  12,C  11)    179.9865         0.035719   
    127. D(C  14,C  13,C  12,H  29)   -179.9814         0.035719   
    128. D(C  14,C  13,C  12,C  11)     -0.0167         0.035719   
    129. D(S  22,C  14,C  13,H  30)   -179.9574         0.020573   
    130. D(S  22,C  14,C  13,C  12)      0.0456         0.020573   
    131. D(C  15,C  14,C  13,H  30)      0.0300         0.020573   
    132. D(C  15,C  14,C  13,C  12)   -179.9670         0.020573   
    133. D(C  18,C  15,C  14,S  22)      0.0655         0.030116   
    134. D(C  18,C  15,C  14,C  13)   -179.9208         0.030116   
    135. D(C  16,C  15,C  14,S  22)   -179.9704         0.030116   
    136. D(C  16,C  15,C  14,C  13)      0.0433         0.030116   
    137. D(O  20,C  18,C  15,C  16)     -0.0791         0.015498   
    138. D(O  20,C  18,C  15,C  14)    179.8856         0.015498   
    139. D(O  19,C  18,C  15,C  16)    179.9227         0.015498   
    140. D(O  19,C  18,C  15,C  14)     -0.1126         0.015498   
    141. D(C  21,O  20,C  18,O  19)      0.0716         0.036695   
    142. D(C  21,O  20,C  18,C  15)   -179.9265         0.036695   
    143. D(H  33,C  21,O  20,C  18)     59.9651         0.019814   
    144. D(H  32,C  21,O  20,C  18)    -60.3128         0.019814   
    145. D(H  31,C  21,O  20,C  18)    179.8289         0.019814   
    146. D(C  11,S  22,C  14,C  15)    179.9651         0.004773   
    147. D(C  11,S  22,C  14,C  13)     -0.0466         0.004773   
    148. D(C  14,S  22,C  11,C  12)      0.0375         0.004172   
    149. D(C  14,S  22,C  11,C  10)   -179.9171         0.004172   
    150. D(C   7,S  23,C  10,C  11)   -179.9533         0.004288   
    151. D(C   7,S  23,C  10,C   9)      0.0003         0.004288   
    152. D(C  10,S  23,C   7,C   8)     -0.0317         0.004658   
    153. D(C  10,S  23,C   7,C   4)    179.9334         0.004658   
    -----------------------------------------------------------------

Number of atoms                         .... 34
Number of degrees of freedom            .... 153

         *************************************************************
         *                GEOMETRY OPTIMIZATION CYCLE   1            *
         *************************************************************
---------------------------------
CARTESIAN COORDINATES (ANGSTROEM)
---------------------------------
  C     -5.311500    2.617900    1.325700
  O     -4.650100    1.578800    0.621100
  C     -5.437700    0.769100   -0.114700
  O     -6.633100    0.896500   -0.190200
  C     -4.647600   -0.269500   -0.796200
  C     -5.359900   -1.180800   -1.597400
  N     -5.921600   -1.934400   -2.255800
  C     -3.282600   -0.389800   -0.689300
  C     -2.485600   -1.386400   -1.332700
  C     -1.162600   -1.287200   -1.062100
  C     -0.835400   -0.210400   -0.193600
  C      0.417600    0.129900    0.250700
  C      0.746200    1.207600    1.116900
  C      2.071000    1.299100    1.385000
  C      2.849200    0.293800    0.740200
  C      4.212400    0.119500    0.813500
  C      5.033400    0.960400    1.575800
  N      5.697200    1.655300    2.204400
  C      4.789200   -0.991700    0.055800
  O      4.096600   -1.737000   -0.612800
  O      6.109000   -1.095600    0.173000
  C      6.719000   -2.158400   -0.545100
  S      1.861500   -0.768800   -0.214600
  S     -2.285000    0.671200    0.265500
  H     -6.032300    2.197100    2.029700
  H     -4.535700    3.167300    1.852200
  H     -5.840900    3.269800    0.627900
  H     -2.938400   -2.129100   -1.965500
  H     -0.399700   -1.940400   -1.447700
  H     -0.010400    1.868000    1.503300
  H      2.534400    2.038200    2.014500
  H      7.783300   -2.088400   -0.337500
  H      6.323300   -3.119200   -0.209500
  H      6.527100   -2.052500   -1.614900

----------------------------
CARTESIAN COORDINATES (A.U.)
----------------------------
  NO LB      ZA    FRAG     MASS         X           Y           Z
   0 C     6.0000    0    12.011  -10.037280    4.947114    2.505210
   1 O     8.0000    0    15.999   -8.787415    2.983500    1.173709
   2 C     6.0000    0    12.011  -10.275764    1.453388   -0.216752
   3 O     8.0000    0    15.999  -12.534742    1.694139   -0.359426
   4 C     6.0000    0    12.011   -8.782691   -0.509281   -1.504600
   5 C     6.0000    0    12.011  -10.128743   -2.231389   -3.018649
   6 N     7.0000    0    14.007  -11.190202   -3.655486   -4.262844
   7 C     6.0000    0    12.011   -6.203215   -0.736615   -1.302588
   8 C     6.0000    0    12.011   -4.697103   -2.619916   -2.518438
   9 C     6.0000    0    12.011   -2.196996   -2.432455   -2.007078
  10 C     6.0000    0    12.011   -1.578677   -0.397598   -0.365851
  11 C     6.0000    0    12.011    0.789150    0.245475    0.473754
  12 C     6.0000    0    12.011    1.410114    2.282033    2.110635
  13 C     6.0000    0    12.011    3.913623    2.454943    2.617271
  14 C     6.0000    0    12.011    5.384208    0.555202    1.398775
  15 C     6.0000    0    12.011    7.960282    0.225822    1.537292
  16 C     6.0000    0    12.011    9.511748    1.814893    2.977830
  17 N     7.0000    0    14.007   10.766148    3.128064    4.165712
  18 C     6.0000    0    12.011    9.050276   -1.874041    0.105447
  19 O     8.0000    0    15.999    7.741452   -3.282454   -1.158024
  20 O     8.0000    0    15.999   11.544337   -2.070384    0.326923
  21 C     6.0000    0    12.011   12.697070   -4.078785   -1.030090
  22 S    16.0000    0    32.060    3.517725   -1.452821   -0.405535
  23 S    16.0000    0    32.060   -4.318024    1.268384    0.501722
  24 H     1.0000    0     1.008  -11.399395    4.151917    3.835577
  25 H     1.0000    0     1.008   -8.571231    5.985330    3.500151
  26 H     1.0000    0     1.008  -11.037701    6.179027    1.186559
  27 H     1.0000    0     1.008   -5.552771   -4.023416   -3.714257
  28 H     1.0000    0     1.008   -0.755324   -3.666825   -2.735757
  29 H     1.0000    0     1.008   -0.019653    3.530008    2.840825
  30 H     1.0000    0     1.008    4.789322    3.851640    3.806853
  31 H     1.0000    0     1.008   14.708305   -3.946504   -0.637783
  32 H     1.0000    0     1.008   11.949305   -5.894434   -0.395898
  33 H     1.0000    0     1.008   12.334431   -3.878663   -3.051719

--------------------------------
INTERNAL COORDINATES (ANGSTROEM)
--------------------------------
 C      0   0   0     0.000000000000     0.00000000     0.00000000
 O      1   0   0     1.419027811567     0.00000000     0.00000000
 C      2   1   0     1.348083636129   116.00983956     0.00000000
 O      3   2   1     1.204538156307   123.40057175     0.09770678
 C      3   2   1     1.472205902719   111.27491516   180.14041460
 C      5   3   2     1.407039594326   116.66789833   179.94407210
 N      6   5   3     1.147567170147   178.88128524   180.40353640
 C      5   3   2     1.374454328088   123.96797581     0.00000000
 C      8   5   3     1.429120050940   125.44143313   179.81106810
 C      9   8   5     1.354028803239   113.81864005   180.09380971
 C     10   9   8     1.421566153930   113.73363373   359.94044803
 C     11  10   9     1.372303020473   126.56942426   179.98527685
 C     12  11  10     1.421167720573   126.61934751   179.87330763
 C     13  12  11     1.354749017346   113.44955798   179.93327545
 C     14  13  12     1.425478996688   113.37235999     0.00000000
 C     15  14  13     1.376251292461   127.29866565   180.03295495
 C     16  15  14     1.400805161327   122.24159761     0.04327516
 N     17  16  15     1.148326787112   179.43179271     3.43914765
 C     16  15  14     1.463411415153   117.32261351   180.07921738
 O     19  16  15     1.217453411840   121.66542487   359.88743277
 O     19  16  15     1.329060980542   113.89763110   179.88563077
 C     21  19  16     1.420320896840   116.12945843   180.07346017
 S     15  14  13     1.736753606589   111.69687385     0.04558049
 S      8   5   3     1.741427517871   123.93415051   359.85119078
 H      1   2   3     1.091898017216   110.21992254    60.38090407
 H      1   2   3     1.086696024655   106.14276601   180.31796191
 H      1   2   3     1.091862083782   110.23410837   300.27711547
 H      9   8   5     1.075670474634   120.76930895     0.05147593
 H     10   9   8     1.075813185456   125.22394084   179.96527464
 H     13  12  11     1.076046783370   121.44582420   359.89943251
 H     14  13  12     1.075768850637   125.69311770   179.98645600
 H     22  21  19     1.086615042230   106.01339089   179.82894333
 H     22  21  19     1.091944362136   110.32759206   299.68718242
 H     22  21  19     1.092022188419   110.32005145    59.96505232

---------------------------
INTERNAL COORDINATES (A.U.)
---------------------------
 C      0   0   0     0.000000000000     0.00000000     0.00000000
 O      1   0   0     2.681573940279     0.00000000     0.00000000
 C      2   1   0     2.547508877905   116.00983956     0.00000000
 O      3   2   1     2.276247233279   123.40057175     0.09770678
 C      3   2   1     2.782065968881   111.27491516   180.14041460
 C      5   3   2     2.658919492859   116.66789833   179.94407210
 N      6   5   3     2.168587671858   178.88128524   180.40353640
 C      5   3   2     2.597342263669   123.96797581     0.00000000
 C      8   5   3     2.700645508773   125.44143313   179.81106810
 C      9   8   5     2.558743615562   113.81864005   180.09380971
 C     10   9   8     2.686370712180   113.73363373   359.94044803
 C     11  10   9     2.593276881447   126.56942426   179.98527685
 C     12  11  10     2.685617782253   126.61934751   179.87330763
 C     13  12  11     2.560104622983   113.44955798   179.93327545
 C     14  13  12     2.693764913398   113.37235999     0.00000000
 C     15  14  13     2.600738034206   127.29866565   180.03295495
 C     16  15  14     2.647138121891   122.24159761     0.04327516
 N     17  16  15     2.170023139888   179.43179271     3.43914765
 C     16  15  14     2.765446795893   117.32261351   180.07921738
 O     19  16  15     2.300653529185   121.66542487   359.88743277
 O     19  16  15     2.511561268506   113.89763110   179.88563077
 C     21  19  16     2.684017517313   116.12945843   180.07346017
 S     15  14  13     3.281988678553   111.69687385     0.04558049
 S      8   5   3     3.290821090851   123.93415051   359.85119078
 H      1   2   3     2.063388218710   110.21992254    60.38090407
 H      1   2   3     2.053557877418   106.14276601   180.31796191
 H      1   2   3     2.063320314360   110.23410837   300.27711547
 H      9   8   5     2.032722607404   120.76930895     0.05147593
 H     10   9   8     2.032992291772   125.22394084   179.96527464
 H     13  12  11     2.033433727855   121.44582420   359.89943251
 H     14  13  12     2.032908511106   125.69311770   179.98645600
 H     22  21  19     2.053404842814   106.01339089   179.82894333
 H     22  21  19     2.063475797916   110.32759206   299.68718242
 H     22  21  19     2.063622868278   110.32005145    59.96505232

---------------------
BASIS SET INFORMATION
---------------------
There are 5 groups of distinct atoms

 Group   1 Type C   : 19s6p3d2f contracted to 5s4p3d2f pattern {88111/3111/111/11}
 Group   2 Type O   : 19s6p3d2f contracted to 5s4p3d2f pattern {88111/3111/111/11}
 Group   3 Type N   : 19s6p3d2f contracted to 5s4p3d2f pattern {88111/3111/111/11}
 Group   4 Type S   : 42s17p3d2f contracted to 6s5p3d2f pattern {131313111/77111/111/11}
 Group   5 Type H   : 5s2p1d contracted to 3s2p1d pattern {311/11/1}

Atom   0C    basis set group =>   1
Atom   1O    basis set group =>   2
Atom   2C    basis set group =>   1
Atom   3O    basis set group =>   2
Atom   4C    basis set group =>   1
Atom   5C    basis set group =>   1
Atom   6N    basis set group =>   3
Atom   7C    basis set group =>   1
Atom   8C    basis set group =>   1
Atom   9C    basis set group =>   1
Atom  10C    basis set group =>   1
Atom  11C    basis set group =>   1
Atom  12C    basis set group =>   1
Atom  13C    basis set group =>   1
Atom  14C    basis set group =>   1
Atom  15C    basis set group =>   1
Atom  16C    basis set group =>   1
Atom  17N    basis set group =>   3
Atom  18C    basis set group =>   1
Atom  19O    basis set group =>   2
Atom  20O    basis set group =>   2
Atom  21C    basis set group =>   1
Atom  22S    basis set group =>   4
Atom  23S    basis set group =>   4
Atom  24H    basis set group =>   5
Atom  25H    basis set group =>   5
Atom  26H    basis set group =>   5
Atom  27H    basis set group =>   5
Atom  28H    basis set group =>   5
Atom  29H    basis set group =>   5
Atom  30H    basis set group =>   5
Atom  31H    basis set group =>   5
Atom  32H    basis set group =>   5
Atom  33H    basis set group =>   5
---------------------------------
AUXILIARY/J BASIS SET INFORMATION
---------------------------------
There are 5 groups of distinct atoms

 Group   1 Type C   : 10s7p5d2f1g contracted to 10s7p5d2f1g pattern {1111111111/1111111/11111/11/1}
 Group   2 Type O   : 10s7p5d2f1g contracted to 10s7p5d2f1g pattern {1111111111/1111111/11111/11/1}
 Group   3 Type N   : 10s7p5d2f1g contracted to 10s7p5d2f1g pattern {1111111111/1111111/11111/11/1}
 Group   4 Type S   : 13s11p9d3f1g contracted to 13s11p9d3f1g pattern {1111111111111/11111111111/111111111/111/1}
 Group   5 Type H   : 4s3p2d1f contracted to 4s3p2d1f pattern {1111/111/11/1}

Atom   0C    basis set group =>   1
Atom   1O    basis set group =>   2
Atom   2C    basis set group =>   1
Atom   3O    basis set group =>   2
Atom   4C    basis set group =>   1
Atom   5C    basis set group =>   1
Atom   6N    basis set group =>   3
Atom   7C    basis set group =>   1
Atom   8C    basis set group =>   1
Atom   9C    basis set group =>   1
Atom  10C    basis set group =>   1
Atom  11C    basis set group =>   1
Atom  12C    basis set group =>   1
Atom  13C    basis set group =>   1
Atom  14C    basis set group =>   1
Atom  15C    basis set group =>   1
Atom  16C    basis set group =>   1
Atom  17N    basis set group =>   3
Atom  18C    basis set group =>   1
Atom  19O    basis set group =>   2
Atom  20O    basis set group =>   2
Atom  21C    basis set group =>   1
Atom  22S    basis set group =>   4
Atom  23S    basis set group =>   4
Atom  24H    basis set group =>   5
Atom  25H    basis set group =>   5
Atom  26H    basis set group =>   5
Atom  27H    basis set group =>   5
Atom  28H    basis set group =>   5
Atom  29H    basis set group =>   5
Atom  30H    basis set group =>   5
Atom  31H    basis set group =>   5
Atom  32H    basis set group =>   5
Atom  33H    basis set group =>   5
---------------------------------
AUXILIARY/C BASIS SET INFORMATION
---------------------------------
There are 5 groups of distinct atoms

 Group   1 Type C   : 9s7p6d4f2g contracted to 9s7p6d4f2g pattern {111111111/1111111/111111/1111/11}
 Group   2 Type O   : 9s7p6d4f2g contracted to 9s7p6d4f2g pattern {111111111/1111111/111111/1111/11}
 Group   3 Type N   : 9s7p6d4f2g contracted to 9s7p6d4f2g pattern {111111111/1111111/111111/1111/11}
 Group   4 Type S   : 11s9p8d6f3g contracted to 11s9p8d6f3g pattern {11111111111/111111111/11111111/111111/111}
 Group   5 Type H   : 4s3p2d1f contracted to 4s3p2d1f pattern {1111/111/11/1}

Atom   0C    basis set group =>   1
Atom   1O    basis set group =>   2
Atom   2C    basis set group =>   1
Atom   3O    basis set group =>   2
Atom   4C    basis set group =>   1
Atom   5C    basis set group =>   1
Atom   6N    basis set group =>   3
Atom   7C    basis set group =>   1
Atom   8C    basis set group =>   1
Atom   9C    basis set group =>   1
Atom  10C    basis set group =>   1
Atom  11C    basis set group =>   1
Atom  12C    basis set group =>   1
Atom  13C    basis set group =>   1
Atom  14C    basis set group =>   1
Atom  15C    basis set group =>   1
Atom  16C    basis set group =>   1
Atom  17N    basis set group =>   3
Atom  18C    basis set group =>   1
Atom  19O    basis set group =>   2
Atom  20O    basis set group =>   2
Atom  21C    basis set group =>   1
Atom  22S    basis set group =>   4
Atom  23S    basis set group =>   4
Atom  24H    basis set group =>   5
Atom  25H    basis set group =>   5
Atom  26H    basis set group =>   5
Atom  27H    basis set group =>   5
Atom  28H    basis set group =>   5
Atom  29H    basis set group =>   5
Atom  30H    basis set group =>   5
Atom  31H    basis set group =>   5
Atom  32H    basis set group =>   5
Atom  33H    basis set group =>   5


           ************************************************************
           *        Program running with 4 parallel MPI-processes     *
           *              working on a common directory               *
           ************************************************************
------------------------------------------------------------------------------
                           ORCA GTO INTEGRAL CALCULATION
                           -- RI-GTO INTEGRALS CHOSEN --
------------------------------------------------------------------------------
------------------------------------------------------------------------------
                   ___                                                        
                  /   \      - P O W E R E D   B Y -                         
                 /     \                                                     
                 |  |  |   _    _      __       _____    __    __             
                 |  |  |  | |  | |    /  \     |  _  \  |  |  /  |          
                  \  \/   | |  | |   /    \    | | | |  |  | /  /          
                 / \  \   | |__| |  /  /\  \   | |_| |  |  |/  /          
                |  |  |   |  __  | /  /__\  \  |    /   |      \           
                |  |  |   | |  | | |   __   |  |    \   |  |\   \          
                \     /   | |  | | |  |  |  |  | |\  \  |  | \   \       
                 \___/    |_|  |_| |__|  |__|  |_| \__\ |__|  \__/        
                                                                              
                      - O R C A' S   B I G   F R I E N D -                    
                                      &                                       
                       - I N T E G R A L  F E E D E R -                       
                                                                              
 v1 FN, 2020, v2 2021                                                         
------------------------------------------------------------------------------


Reading SHARK input file wb97x-d3-train-6.SHARKINP.tmp ... ok
----------------------
SHARK INTEGRAL PACKAGE
----------------------

Number of atoms                             ...     34
Number of basis functions                   ...   1434
Number of shells                            ...    562
Maximum angular momentum                    ...      3
Integral batch strategy                     ... SHARK/LIBINT Hybrid
RI-J (if used) integral strategy            ... SPLIT-RIJ (Revised 2003 algorithm where possible)
Printlevel                                  ...      1
Contraction scheme used                     ... PARTIAL GENERAL contraction
Coulomb Range Separation                    ... NOT USED
Exchange Range Separation                   ... Long Range
   Mu parameter                             ...  0.250000
   Scaling (regular/separated)              ...  0.195728  0.804272
Finite Nucleus Model                        ... NOT USED
Auxiliary Coulomb fitting basis             ... AVAILABLE
   # of basis functions in Aux-J            ...   2280
   # of shells in Aux-J                     ...    724
   Maximum angular momentum in Aux-J        ...      4
Auxiliary J/K fitting basis                 ... NOT available
Auxiliary Correlation fitting basis         ... AVAILABLE
   # of basis functions in Aux-C            ...   2926
   # of shells in Aux-C                     ...    790
   Maximum angular momentum in Aux-C        ...      4
Auxiliary 'external' fitting basis          ... NOT available
Integral threshold                          ...     2.500000e-11
Primitive cut-off                           ...     2.500000e-12
Primitive pair pre-selection threshold      ...     2.500000e-12

Calculating pre-screening integrals         ... done (  0.4 sec) Dimension = 562
Calculating pre-screening integrals (ORCA)  ... done (  1.1 sec) Dimension = 400
Organizing shell pair data                  ... done (  1.9 sec)
Shell pair information
Total number of shell pairs                 ...    158203
Shell pairs after pre-screening             ...     85650
Total number of primitive shell pairs       ...    196347
Primitive shell pairs kept                  ...     96907
          la=0 lb=0:  18561 shell pairs
          la=1 lb=0:  22526 shell pairs
          la=1 lb=1:   5894 shell pairs
          la=2 lb=0:  13907 shell pairs
          la=2 lb=1:   7229 shell pairs
          la=2 lb=2:   2287 shell pairs
          la=3 lb=0:   7717 shell pairs
          la=3 lb=1:   4172 shell pairs
          la=3 lb=2:   2591 shell pairs
          la=3 lb=3:    766 shell pairs

Calculating one electron integrals          ... done (  0.5 sec)
Calculating RI/J V-Matrix + Cholesky decomp.... done (  0.6 sec)
Calculating RI/C V-Matrix + Cholesky decomp.... done (  1.1 sec)
Calculating Nuclear repulsion               ... done (  0.0 sec) ENN=   2124.042008873448 Eh

SHARK setup successfully completed in   7.2 seconds

Maximum memory used throughout the entire GTOINT-calculation: 142.8 MB


           ************************************************************
           *        Program running with 4 parallel MPI-processes     *
           *              working on a common directory               *
           ************************************************************
-------------------------------------------------------------------------------
                                 ORCA SCF
-------------------------------------------------------------------------------

------------
SCF SETTINGS
------------
Hamiltonian:
 Density Functional     Method          .... DFT(GTOs)
 Exchange Functional    Exchange        .... WB97X-D3
 Correlation Functional Correlation     .... WB97X-D3
 Gradients option       PostSCFGGA      .... off
 Hybrid DFT is turned on
   Fraction HF Exchange ScalHFX         ....  0.195728
   Scaling of DF-GGA-X  ScalDFX         ....  0.000000
   Scaling of DF-GGA-C  ScalDFC         ....  1.000000
   Scaling of DF-LDA-C  ScalLDAC        ....  1.000000
   Perturbative correction              ....  0.000000
   Density functional embedding theory  .... OFF
 Long-range corrected/Screened/Range-Separated Hybrid DFT is turned on
   Amount of maximum screened exact exchange              ....  0.804272
   Range separation parameter mu (erf(mu*r12)/r12)        ....  0.250000
 RI-approximation to the Coulomb term is turned on
   Number of AuxJ basis functions       .... 2280
   RIJ-COSX (HFX calculated with COS-X)).... on


General Settings:
 Integral files         IntName         .... wb97x-d3-train-6
 Hartree-Fock type      HFTyp           .... RHF
 Total Charge           Charge          ....    0
 Multiplicity           Mult            ....    1
 Number of Electrons    NEL             ....  184
 Basis Dimension        Dim             .... 1252
 Nuclear Repulsion      ENuc            ....   2124.0420088734 Eh

Convergence Acceleration:
 DIIS                   CNVDIIS         .... on
   Start iteration      DIISMaxIt       ....    12
   Startup error        DIISStart       ....  0.200000
   # of expansion vecs  DIISMaxEq       ....     5
   Bias factor          DIISBfac        ....   1.050
   Max. coefficient     DIISMaxC        ....  10.000
 Trust-Rad. Augm. Hess. CNVTRAH         .... auto
   Auto Start mean grad. ratio tolernc. ....  1.125000
   Auto Start start iteration           ....    20
   Auto Start num. interpolation iter.  ....    10
   Max. Number of Micro iterations      ....    16
   Max. Number of Macro iterations      .... Maxiter - #DIIS iter
   Number of Davidson start vectors     ....     2
   Converg. threshold I  (grad. norm)   ....   1.000e-05
   Converg. threshold II (energy diff.) ....   1.000e-08
   Grad. Scal. Fac. for Micro threshold ....   0.100
   Minimum threshold for Micro iter.    ....   0.010
   NR start threshold (gradient norm)   ....   0.001
   Initial trust radius                 ....   0.400
   Minimum AH scaling param. (alpha)    ....   1.000
   Maximum AH scaling param. (alpha)    .... 1000.000
   Orbital update algorithm             .... Taylor
   White noise on init. David. guess    .... on
   Maximum white noise                  ....   0.010
   Quad. conv. algorithm                .... NR
 SOSCF                  CNVSOSCF        .... on
   Start iteration      SOSCFMaxIt      ....   150
   Startup grad/error   SOSCFStart      ....  0.003300
 Level Shifting         CNVShift        .... on
   Level shift para.    LevelShift      ....    0.2500
   Turn off err/grad.   ShiftErr        ....    0.0010
 Zerner damping         CNVZerner       .... off
 Static damping         CNVDamp         .... on
   Fraction old density DampFac         ....    0.7000
   Max. Damping (<1)    DampMax         ....    0.9800
   Min. Damping (>=0)   DampMin         ....    0.0000
   Turn off err/grad.   DampErr         ....    0.1000
 Fernandez-Rico         CNVRico         .... off

SCF Procedure:
 Maximum # iterations   MaxIter         ....   125
 SCF integral mode      SCFMode         .... Direct
   Integral package                     .... SHARK and LIBINT hybrid scheme
 Reset frequency        DirectResetFreq ....    20
 Integral Threshold     Thresh          ....  2.500e-11 Eh
 Primitive CutOff       TCut            ....  2.500e-12 Eh

Convergence Tolerance:
 Convergence Check Mode ConvCheckMode   .... Total+1el-Energy
 Convergence forced     ConvForced      .... 0
 Energy Change          TolE            ....  1.000e-08 Eh
 1-El. energy change                    ....  1.000e-05 Eh
 Orbital Gradient       TolG            ....  1.000e-05
 Orbital Rotation angle TolX            ....  1.000e-05
 DIIS Error             TolErr          ....  5.000e-07


Diagonalization of the overlap matrix:
Smallest eigenvalue                        ... 3.061e-07
Time for diagonalization                   ...    0.588 sec
Threshold for overlap eigenvalues          ... 1.000e-08
Number of eigenvalues below threshold      ... 0
Time for construction of square roots      ...    0.449 sec
Total time needed                          ...    1.049 sec

Time for model grid setup =    1.732 sec

------------------------------
INITIAL GUESS: MODEL POTENTIAL
------------------------------
Loading Hartree-Fock densities                     ... done
Calculating cut-offs                               ... done
Initializing the effective Hamiltonian             ... done
Setting up the integral package (SHARK)            ... done
Starting the Coulomb interaction                   ... done (   5.9 sec)
Reading the grid                                   ... done
Mapping shells                                     ... done
Starting the XC term evaluation                    ... done (   3.0 sec)
  promolecular density results
     # of electrons  =    183.997693624
     EX              =   -180.262481498
     EC              =     -6.378318293
     EX+EC           =   -186.640799792
Transforming the Hamiltonian                       ... done (   0.3 sec)
Diagonalizing the Hamiltonian                      ... done (   0.6 sec)
Back transforming the eigenvectors                 ... done (   0.2 sec)
Now organizing SCF variables                       ... done
                      ------------------
                      INITIAL GUESS DONE (  11.8 sec)
                      ------------------
-------------------
DFT GRID GENERATION
-------------------

General Integration Accuracy     IntAcc      ... 4.388
Radial Grid Type                 RadialGrid  ... OptM3 with GC (2021)
Angular Grid (max. ang.)         AngularGrid ... 4 (Lebedev-302)
Angular grid pruning method      GridPruning ... 4 (adaptive)
Weight generation scheme         WeightScheme... Becke
Basis function cutoff            BFCut       ... 1.0000e-11
Integration weight cutoff        WCut        ... 1.0000e-14
Angular grids for H and He will be reduced by one unit
Partially contracted basis set               ... off
Rotationally invariant grid construction     ... off

Total number of grid points                  ...   185408
Total number of batches                      ...     2913
Average number of points per batch           ...       63
Average number of grid points per atom       ...     5453
Time for grid setup =    4.569 sec

--------------------
COSX GRID GENERATION
--------------------

GRIDX 1
-------
General Integration Accuracy     IntAcc      ... 3.816
Radial Grid Type                 RadialGrid  ... OptM3 with GC (2021)
Angular Grid (max. ang.)         AngularGrid ... 1 (Lebedev-50)
Angular grid pruning method      GridPruning ... 4 (adaptive)
Weight generation scheme         WeightScheme... Becke
Basis function cutoff            BFCut       ... 1.0000e-11
Integration weight cutoff        WCut        ... 1.0000e-14
Angular grids for H and He will be reduced by one unit
Partially contracted basis set               ... on
Rotationally invariant grid construction     ... off

Total number of grid points                  ...    23357
Total number of batches                      ...      380
Average number of points per batch           ...       61
Average number of grid points per atom       ...      687
UseSFitting                                  ... on

GRIDX 2
-------
General Integration Accuracy     IntAcc      ... 4.020
Radial Grid Type                 RadialGrid  ... OptM3 with GC (2021)
Angular Grid (max. ang.)         AngularGrid ... 2 (Lebedev-110)
Angular grid pruning method      GridPruning ... 4 (adaptive)
Weight generation scheme         WeightScheme... Becke
Basis function cutoff            BFCut       ... 1.0000e-11
Integration weight cutoff        WCut        ... 1.0000e-14
Angular grids for H and He will be reduced by one unit
Partially contracted basis set               ... on
Rotationally invariant grid construction     ... off

Total number of grid points                  ...    57561
Total number of batches                      ...      919
Average number of points per batch           ...       62
Average number of grid points per atom       ...     1693
UseSFitting                                  ... on

GRIDX 3
-------
General Integration Accuracy     IntAcc      ... 4.338
Radial Grid Type                 RadialGrid  ... OptM3 with GC (2021)
Angular Grid (max. ang.)         AngularGrid ... 3 (Lebedev-194)
Angular grid pruning method      GridPruning ... 4 (adaptive)
Weight generation scheme         WeightScheme... Becke
Basis function cutoff            BFCut       ... 1.0000e-11
Integration weight cutoff        WCut        ... 1.0000e-14
Angular grids for H and He will be reduced by one unit
Partially contracted basis set               ... on
Rotationally invariant grid construction     ... off

Total number of grid points                  ...   125435
Total number of batches                      ...     1977
Average number of points per batch           ...       63
Average number of grid points per atom       ...     3689
UseSFitting                                  ... on

Time for X-Grid setup             =   12.242 sec


--------------------
CPCM SOLVATION MODEL
--------------------
CPCM parameters:
  Epsilon                                         ...       2.3741
  Refrac                                          ...       1.4961
  Rsolv                                           ...       1.3000
  Surface type                                    ... GAUSSIAN VDW
  Epsilon function type                           ...         CPCM
Solvent:                                     ... TOLUENE
SMD-CDS solvent descriptors:
  Soln                                       ...    1.4961
  Soln25                                     ...    1.4936
  Sola                                       ...    0.0000
  Solb                                       ...    0.1400
  Solg                                       ...   40.2000
  Solc                                       ...    0.8570
  Solh                                       ...    0.0000
Radii:
 Radius for C  used is    3.4960 Bohr (=   1.8500 Ang.)
 Radius for O  used is    4.3350 Bohr (=   2.2940 Ang.)
 Radius for N  used is    3.5716 Bohr (=   1.8900 Ang.)
 Radius for S  used is    4.7054 Bohr (=   2.4900 Ang.)
 Radius for H  used is    2.2677 Bohr (=   1.2000 Ang.)
Calculating surface                               ...        done! (  0.0s)
GEPOL surface points                              ...         1779
GEPOL Volume                                      ...    2758.6728
GEPOL Surface-area                                ...    1373.4159
Calculating surface distance matrix               ...        done! (  0.1s)
Performing Cholesky decomposition & store         ...        done! (  0.2s)
Overall time for CPCM initialization              ...                 0.3s
 re-compute Schwartz prescreening matrix in partically contracted basis (1) ...done (   0.475 sec)
--------------
SCF ITERATIONS
--------------
ITER       Energy         Delta-E        Max-DP      RMS-DP      [F,P]     Damp
               ***  Starting incremental Fock matrix formation  ***
  0  -1821.9624466710   0.000000000000 0.13236949  0.00145446  0.2904630 0.7000
  1  -1822.2049733985  -0.242526727460 0.09830169  0.00111776  0.1316196 0.7000
                               ***Turning on DIIS***
  2  -1822.3156342040  -0.110660805527 0.17945293  0.00260017  0.0436517 0.0000
  3  -1822.5041402347  -0.188506030627 0.09361570  0.00085920  0.0650532 0.0000
  4  -1822.5331949685  -0.029054733854 0.06394149  0.00032718  0.0150892 0.0000
  5  -1822.5354708723  -0.002275903828 0.03567299  0.00016975  0.0046858 0.0000
  6  -1822.5361584213  -0.000687548985 0.02567177  0.00013958  0.0015340 0.0000
  7  -1822.5364970805  -0.000338659181 0.02002482  0.00013745  0.0013908 0.0000
                      *** Initiating the SOSCF procedure ***
                           *** Shutting down DIIS ***
                      *** Re-Reading the Fockian *** 
                      *** Removing any level shift *** 
ITER      Energy       Delta-E        Grad      Rot      Max-DP    RMS-DP
  8  -1822.53665304  -0.0001559589  0.002956  0.002956  0.011608  0.000078
               *** Restarting incremental Fock matrix formation ***
  9  -1822.53670740  -0.0000543557  0.001244  0.004424  0.224195  0.001361
 10  -1822.53673434  -0.0000269493  0.000568  0.004540  0.145940  0.000685
 11  -1822.53673919  -0.0000048460  0.000192  0.000187  0.106805  0.000505
 12  -1822.53674289  -0.0000036998  0.000046  0.000391  0.018458  0.000167
 13  -1822.53674311  -0.0000002213  0.000016  0.000046  0.022823  0.000114
 14  -1822.53674314  -0.0000000327  0.000008  0.000056  0.024587  0.000192
 15  -1822.53674313   0.0000000094  0.000005  0.000009  0.015873  0.000135
                  ***Gradient check signals convergence***
              ***Rediagonalizing the Fockian in SOSCF/NRSCF***

               *****************************************************
               *                     SUCCESS                       *
               *           SCF CONVERGED AFTER  16 CYCLES          *
               *****************************************************

Old exchange energy                            =    -55.554338885 Eh
New exchange energy                            =    -55.554288080 Eh
Exchange energy change after final integration =      0.000050805 Eh
Total energy after final integration           =  -1822.536692306 Eh
Final COS-X integration done in                =   433.465 sec

SMD CDS free energy correction energy :                -3.71137     Kcal/mol
Total Energy after SMD CDS correction =             -1822.542606750 Eh

----------------
TOTAL SCF ENERGY
----------------

Total Energy       :        -1822.54260675 Eh          -49593.90564 eV

Components:
Nuclear Repulsion  :         2124.04200887 Eh           57798.12146 eV
Electronic Energy  :        -3946.58461562 Eh         -107392.02710 eV
One Electron Energy:        -6717.04827435 Eh         -182780.17591 eV
Two Electron Energy:         2770.46365873 Eh           75388.14881 eV
Max COSX asymmetry :            0.00004269 Eh               0.00116 eV
CPCM Dielectric    :           -0.01966377 Eh              -0.53508 eV
SMD CDS (Gcds)     :           -0.00591444 Eh              -0.16094 eV

Virial components:
Potential Energy   :        -3637.59664306 Eh          -98984.03691 eV
Kinetic Energy     :         1815.05403631 Eh           49390.13127 eV
Virial Ratio       :            2.00412581


DFT components:
N(Alpha)           :       92.000018367725 electrons
N(Beta)            :       92.000018367725 electrons
N(Total)           :      184.000036735451 electrons
E(XC)              :     -134.352053887484 Eh       
DFET-embed. en.    :        0.000000000000 Eh       
CPCM Solvation Model Properties:
Surface-charge          :           -0.03505383
Charge-correction       :            0.00015008 Eh               0.00408 eV
Free-energy (cav+disp)  :           -0.00591444 Eh              -0.16094 eV

---------------
SCF CONVERGENCE
---------------

  Last Energy change         ...    2.4056e-08  Tolerance :   1.0000e-08
  Last MAX-Density change    ...    6.6613e-15  Tolerance :   1.0000e-07
  Last RMS-Density change    ...    2.0926e-17  Tolerance :   5.0000e-09
  Last Orbital Gradient      ...    2.3105e-06  Tolerance :   1.0000e-05
  Last Orbital Rotation      ...    1.8910e-05  Tolerance :   1.0000e-05

             **** THE GBW FILE WAS UPDATED (wb97x-d3-train-6.gbw) ****
             **** DENSITY wb97x-d3-train-6.scfp WAS UPDATED ****
             **** ENERGY FILE WAS UPDATED (wb97x-d3-train-6.en.tmp) ****
             **** THE GBW FILE WAS UPDATED (wb97x-d3-train-6.gbw) ****
             **** DENSITY wb97x-d3-train-6.scfp WAS UPDATED ****
----------------
ORBITAL ENERGIES
----------------

  NO   OCC          E(Eh)            E(eV) 
   0   2.0000     -89.036191     -2422.7979 
   1   2.0000     -89.033220     -2422.7171 
   2   2.0000     -19.301835      -525.2296 
   3   2.0000     -19.301428      -525.2186 
   4   2.0000     -19.242713      -523.6208 
   5   2.0000     -19.236537      -523.4528 
   6   2.0000     -14.431430      -392.6992 
   7   2.0000     -14.430789      -392.6817 
   8   2.0000     -10.434635      -283.9409 
   9   2.0000     -10.432942      -283.8948 
  10   2.0000     -10.383195      -282.5411 
  11   2.0000     -10.379783      -282.4482 
  12   2.0000     -10.363618      -282.0084 
  13   2.0000     -10.358685      -281.8741 
  14   2.0000     -10.344759      -281.4952 
  15   2.0000     -10.340091      -281.3682 
  16   2.0000     -10.337237      -281.2905 
  17   2.0000     -10.335574      -281.2453 
  18   2.0000     -10.333948      -281.2010 
  19   2.0000     -10.333883      -281.1993 
  20   2.0000     -10.331559      -281.1360 
  21   2.0000     -10.330099      -281.0963 
  22   2.0000     -10.327877      -281.0358 
  23   2.0000     -10.326987      -281.0116 
  24   2.0000      -8.109848      -220.6802 
  25   2.0000      -8.106046      -220.5767 
  26   2.0000      -6.064761      -165.0305 
  27   2.0000      -6.060998      -164.9281 
  28   2.0000      -6.060518      -164.9151 
  29   2.0000      -6.056637      -164.8095 
  30   2.0000      -6.056073      -164.7941 
  31   2.0000      -6.052402      -164.6942 
  32   2.0000      -1.251593       -34.0576 
  33   2.0000      -1.248710       -33.9791 
  34   2.0000      -1.160320       -31.5739 
  35   2.0000      -1.155742       -31.4493 
  36   2.0000      -1.061263       -28.8784 
  37   2.0000      -1.048266       -28.5248 
  38   2.0000      -1.039161       -28.2770 
  39   2.0000      -1.031154       -28.0591 
  40   2.0000      -0.971225       -26.4284 
  41   2.0000      -0.949433       -25.8354 
  42   2.0000      -0.906994       -24.6806 
  43   2.0000      -0.899345       -24.4724 
  44   2.0000      -0.881204       -23.9788 
  45   2.0000      -0.861183       -23.4340 
  46   2.0000      -0.846496       -23.0343 
  47   2.0000      -0.810966       -22.0675 
  48   2.0000      -0.753193       -20.4954 
  49   2.0000      -0.731350       -19.9010 
  50   2.0000      -0.714666       -19.4470 
  51   2.0000      -0.713187       -19.4068 
  52   2.0000      -0.697496       -18.9798 
  53   2.0000      -0.683701       -18.6045 
  54   2.0000      -0.667511       -18.1639 
  55   2.0000      -0.652548       -17.7567 
  56   2.0000      -0.645677       -17.5698 
  57   2.0000      -0.618335       -16.8257 
  58   2.0000      -0.612009       -16.6536 
  59   2.0000      -0.611088       -16.6285 
  60   2.0000      -0.597060       -16.2468 
  61   2.0000      -0.590667       -16.0729 
  62   2.0000      -0.574190       -15.6245 
  63   2.0000      -0.558707       -15.2032 
  64   2.0000      -0.557412       -15.1679 
  65   2.0000      -0.543220       -14.7818 
  66   2.0000      -0.541521       -14.7355 
  67   2.0000      -0.540736       -14.7142 
  68   2.0000      -0.530306       -14.4304 
  69   2.0000      -0.521938       -14.2027 
  70   2.0000      -0.517437       -14.0802 
  71   2.0000      -0.503175       -13.6921 
  72   2.0000      -0.501762       -13.6536 
  73   2.0000      -0.489577       -13.3221 
  74   2.0000      -0.482912       -13.1407 
  75   2.0000      -0.482404       -13.1269 
  76   2.0000      -0.480866       -13.0850 
  77   2.0000      -0.477829       -13.0024 
  78   2.0000      -0.473766       -12.8918 
  79   2.0000      -0.469855       -12.7854 
  80   2.0000      -0.453627       -12.3438 
  81   2.0000      -0.448779       -12.2119 
  82   2.0000      -0.441272       -12.0076 
  83   2.0000      -0.427080       -11.6214 
  84   2.0000      -0.421355       -11.4657 
  85   2.0000      -0.416996       -11.3470 
  86   2.0000      -0.398365       -10.8401 
  87   2.0000      -0.388815       -10.5802 
  88   2.0000      -0.387757       -10.5514 
  89   2.0000      -0.379193       -10.3184 
  90   2.0000      -0.361784        -9.8446 
  91   2.0000      -0.290368        -7.9013 
  92   0.0000      -0.088331        -2.4036 
  93   0.0000      -0.008971        -0.2441 
  94   0.0000       0.040347         1.0979 
  95   0.0000       0.043139         1.1739 
  96   0.0000       0.049304         1.3416 
  97   0.0000       0.049323         1.3422 
  98   0.0000       0.051386         1.3983 
  99   0.0000       0.062833         1.7098 
 100   0.0000       0.064860         1.7649 
 101   0.0000       0.065682         1.7873 
 102   0.0000       0.065879         1.7927 
 103   0.0000       0.071068         1.9339 
 104   0.0000       0.073281         1.9941 
 105   0.0000       0.076344         2.0774 
 106   0.0000       0.079162         2.1541 
 107   0.0000       0.082594         2.2475 
 108   0.0000       0.084414         2.2970 
 109   0.0000       0.086314         2.3487 
 110   0.0000       0.086996         2.3673 
 111   0.0000       0.087962         2.3936 
 112   0.0000       0.090974         2.4755 
 113   0.0000       0.092260         2.5105 
 114   0.0000       0.094203         2.5634 
 115   0.0000       0.094332         2.5669 
 116   0.0000       0.098775         2.6878 
 117   0.0000       0.102114         2.7787 
 118   0.0000       0.103405         2.8138 
 119   0.0000       0.108383         2.9493 
 120   0.0000       0.110011         2.9936 
 121   0.0000       0.113023         3.0755 
 122   0.0000       0.118260         3.2180 
 123   0.0000       0.118689         3.2297 
 124   0.0000       0.121085         3.2949 
 125   0.0000       0.123695         3.3659 
 126   0.0000       0.124274         3.3817 
 127   0.0000       0.130928         3.5627 
 128   0.0000       0.131195         3.5700 
 129   0.0000       0.133341         3.6284 
 130   0.0000       0.139393         3.7931 
 131   0.0000       0.140047         3.8109 
 132   0.0000       0.142378         3.8743 
[...]
   Lowest Energy          :     0.100040840066
   Maximum Energy change  :     0.027602266975 (vector 6)
   Maximum residual norm  :     0.001877317590

                       ****Iteration    2****
   Time for densities:            0.362
   Time for RI-J (Direct):       15.889
   Time for K (COSX):            71.506
   Time for XC-Integration:      18.271
   Time for LR-CPCM terms:       12.420
   Time for Sigma-Completion:     0.237
   Size of expansion space: 50
   Lowest Energy          :     0.099278984848
   Maximum Energy change  :     0.004553778171 (vector 6)
   Maximum residual norm  :     0.000272906665

                       ****Iteration    3****
   Time for densities:            0.370
   Time for RI-J (Direct):       16.141
   Time for K (COSX):            71.627
   Time for XC-Integration:      18.630
   Time for LR-CPCM terms:       12.472
   Time for Sigma-Completion:     0.234
   Size of expansion space: 60
   Lowest Energy          :     0.099200882205
   Maximum Energy change  :     0.001094725584 (vector 8)
   Maximum residual norm  :     0.000213820891

                       ****Iteration    4****
   Time for densities:            0.382
   Time for RI-J (Direct):       16.096
   Time for K (COSX):            71.904
   Time for XC-Integration:      18.868
   Time for LR-CPCM terms:       12.458
   Time for Sigma-Completion:     0.235
   Size of expansion space: 70
   Lowest Energy          :     0.099193426279
   Maximum Energy change  :     0.000300763697 (vector 7)
   Maximum residual norm  :     0.000047288533
   Rebuilding the expansion space

                       ****Iteration    5****
   Time for densities:            0.771
   Time for RI-J (Direct):       20.971
   Time for K (COSX):           123.854
   Time for XC-Integration:      35.763
   Time for LR-CPCM terms:       20.194
   Time for Sigma-Completion:     0.463
   Size of expansion space: 20
   Lowest Energy          :     0.099192894426
   Maximum Energy change  :     0.000064928785 (vector 9)
   Maximum residual norm  :     0.000016453559

                       ****Iteration    6****
   Time for densities:            0.370
   Time for RI-J (Direct):       16.070
   Time for K (COSX):            71.719
   Time for XC-Integration:      19.807
   Time for LR-CPCM terms:       12.595
   Time for Sigma-Completion:     0.240
   Size of expansion space: 30
   Lowest Energy          :     0.099192822254
   Maximum Energy change  :     0.000044802175 (vector 9)
   Maximum residual norm  :     0.000007565656

                       ****Iteration    7****
   Time for densities:            0.377
   Time for RI-J (Direct):       16.268
   Time for K (COSX):            72.799
   Time for XC-Integration:      18.897
   Time for LR-CPCM terms:       12.238
   Time for Sigma-Completion:     0.230
   Size of expansion space: 40
   Lowest Energy          :     0.099192815117
   Maximum Energy change  :     0.000021750215 (vector 9)
   Maximum residual norm  :     0.000006713201

                       ****Iteration    8****
   Time for densities:            0.377
   Time for RI-J (Direct):       15.478
   Time for K (COSX):            70.121
   Time for XC-Integration:      18.432
   Time for LR-CPCM terms:       12.215
   Time for Sigma-Completion:     0.238
   Size of expansion space: 50
   Lowest Energy          :     0.099192814065
   Maximum Energy change  :     0.000017198734 (vector 9)
   Maximum residual norm  :     0.000004583122

                       ****Iteration    9****
   Time for densities:            0.374
   Time for RI-J (Direct):       15.554
   Time for K (COSX):            70.320
   Time for XC-Integration:      18.373
   Time for LR-CPCM terms:       12.241
   Time for Sigma-Completion:     0.243
   Size of expansion space: 60
   Lowest Energy          :     0.099192814009
   Maximum Energy change  :     0.000018042193 (vector 9)
   Maximum residual norm  :     0.000005040633

                       ****Iteration   10****
   Time for densities:            0.394
   Time for RI-J (Direct):       15.535
   Time for K (COSX):            70.073
   Time for XC-Integration:      18.942
   Time for LR-CPCM terms:       12.229
   Time for Sigma-Completion:     0.231
   Size of expansion space: 70
   Lowest Energy          :     0.099192814005
   Maximum Energy change  :     0.000027191976 (vector 9)
   Maximum residual norm  :     0.000010594068
   Rebuilding the expansion space

                       ****Iteration   11****
   Time for densities:            0.753
   Time for RI-J (Direct):       20.577
   Time for K (COSX):           120.462
   Time for XC-Integration:      35.215
   Time for LR-CPCM terms:       19.811
   Time for Sigma-Completion:     0.466
   Size of expansion space: 20
   Lowest Energy          :     0.099192816100
   Maximum Energy change  :     0.000016346570 (vector 9)
   Maximum residual norm  :     0.000003996149

                       ****Iteration   12****
   Time for densities:            0.372
   Time for RI-J (Direct):       16.003
   Time for K (COSX):            72.949
   Time for XC-Integration:      19.981
   Time for LR-CPCM terms:       12.696
   Time for Sigma-Completion:     0.239
   Size of expansion space: 30
   Lowest Energy          :     0.099192816096
   Maximum Energy change  :     0.000010882090 (vector 9)
   Maximum residual norm  :     0.000002735187

                       ****Iteration   13****
   Time for densities:            0.383
   Time for RI-J (Direct):       16.396
   Time for K (COSX):            72.450
   Time for XC-Integration:      20.302
   Time for LR-CPCM terms:       12.870
   Time for Sigma-Completion:     0.235
   Size of expansion space: 40
   Lowest Energy          :     0.099192816096
   Maximum Energy change  :     0.000006363683 (vector 9)
   Maximum residual norm  :     0.000001588781

                       ****Iteration   14****
   Time for densities:            0.348
   Time for RI-J (Direct):       15.887
   Time for K (COSX):            67.838
   Time for XC-Integration:      18.952
   Time for LR-CPCM terms:       11.820
   Time for Sigma-Completion:     0.219
   Size of expansion space: 49
   Lowest Energy          :     0.099192816096
   Maximum Energy change  :     0.000004204047 (vector 9)
   Maximum residual norm  :     0.000000875754

      *** CONVERGENCE OF RESIDUAL NORM REACHED ***

Storing the converged CI vectors               ... wb97x-d3-train-6_job2.cis1

                 *** DAVIDSON DONE ***

Total time for solving the CIS problem:  2119.986sec

------------------------------------
TD-DFT/TDA EXCITED STATES (SINGLETS)
------------------------------------

the weight of the individual excitations are printed if larger than 1.0e-02

STATE  1:  E=   0.099193 au      2.699 eV    21770.3 cm**-1 <S**2> =   0.000000
    90a ->  93a  :     0.020554 (c= -0.14336496)
    91a ->  92a  :     0.943344 (c=  0.97125918)

STATE  2:  E=   0.152431 au      4.148 eV    33454.7 cm**-1 <S**2> =   0.000000
    87a ->  92a  :     0.196224 (c=  0.44297163)
    88a ->  92a  :     0.118286 (c=  0.34392694)
    89a ->  92a  :     0.055712 (c= -0.23603367)
    89a ->  93a  :     0.038783 (c= -0.19693514)
    90a ->  92a  :     0.409061 (c= -0.63957882)
    91a ->  93a  :     0.142079 (c=  0.37693372)

STATE  3:  E=   0.155847 au      4.241 eV    34204.5 cm**-1 <S**2> =   0.000000
    87a ->  92a  :     0.016835 (c=  0.12974943)
    87a ->  93a  :     0.027161 (c= -0.16480678)
    88a ->  92a  :     0.010316 (c=  0.10156925)
    88a ->  93a  :     0.016626 (c= -0.12894122)
    89a ->  92a  :     0.860267 (c=  0.92750575)
    90a ->  92a  :     0.015650 (c= -0.12510039)
    91a ->  93a  :     0.016899 (c=  0.12999580)

STATE  4:  E=   0.162008 au      4.408 eV    35556.6 cm**-1 <S**2> =   0.000000
    87a ->  92a  :     0.058309 (c=  0.24147224)
    88a ->  92a  :     0.036457 (c=  0.19093748)
    90a ->  92a  :     0.060534 (c= -0.24603725)
    90a ->  96a  :     0.021818 (c= -0.14770794)
    91a ->  93a  :     0.770307 (c= -0.87767157)

STATE  5:  E=   0.172232 au      4.687 eV    37800.5 cm**-1 <S**2> =   0.000000
    86a ->  93a  :     0.012349 (c=  0.11112692)
    87a ->  92a  :     0.258222 (c=  0.50815535)
    87a ->  93a  :     0.056499 (c=  0.23769435)
    88a ->  92a  :     0.461025 (c= -0.67898835)
    88a ->  93a  :     0.093375 (c= -0.30557301)
    88a ->  96a  :     0.013612 (c=  0.11666939)
    88a -> 108a  :     0.011558 (c= -0.10750643)
    88a -> 111a  :     0.010141 (c= -0.10070292)

STATE  6:  E=   0.176722 au      4.809 eV    38786.0 cm**-1 <S**2> =   0.000000
    83a ->  93a  :     0.017181 (c=  0.13107465)
    87a ->  92a  :     0.303842 (c=  0.55121892)
    88a ->  92a  :     0.162063 (c=  0.40257091)
    89a ->  93a  :     0.019498 (c= -0.13963585)
    90a ->  92a  :     0.445030 (c=  0.66710549)

STATE  7:  E=   0.181727 au      4.945 eV    39884.5 cm**-1 <S**2> =   0.000000
    86a ->  92a  :     0.629917 (c= -0.79367342)
    86a ->  93a  :     0.188772 (c=  0.43447843)
    86a ->  96a  :     0.038984 (c=  0.19744248)
    86a -> 111a  :     0.038997 (c= -0.19747703)
    86a -> 113a  :     0.032146 (c= -0.17929409)
    88a ->  93a  :     0.012819 (c=  0.11322060)

STATE  8:  E=   0.203773 au      5.545 eV    44723.0 cm**-1 <S**2> =   0.000000
    85a ->  92a  :     0.010142 (c=  0.10070794)
    90a ->  93a  :     0.221376 (c= -0.47050569)
    91a ->  96a  :     0.662618 (c= -0.81401368)
    91a -> 104a  :     0.012234 (c= -0.11060735)

STATE  9:  E=   0.206251 au      5.612 eV    45266.9 cm**-1 <S**2> =   0.000000
    90a -> 103a  :     0.044901 (c= -0.21189858)
    90a -> 105a  :     0.014700 (c=  0.12124495)
    90a -> 109a  :     0.010639 (c= -0.10314554)
    91a ->  94a  :     0.087073 (c= -0.29508152)
    91a ->  95a  :     0.021010 (c=  0.14494663)
    91a ->  97a  :     0.012678 (c=  0.11259865)
    91a ->  98a  :     0.011414 (c= -0.10683476)
    91a -> 101a  :     0.155803 (c= -0.39471924)
    91a -> 103a  :     0.116575 (c= -0.34143057)
    91a -> 106a  :     0.275047 (c= -0.52444927)
    91a -> 107a  :     0.099249 (c= -0.31503816)

STATE 10:  E=   0.211285 au      5.749 eV    46371.8 cm**-1 <S**2> =   0.000000
    73a ->  92a  :     0.015063 (c= -0.12272970)
    76a ->  92a  :     0.012923 (c=  0.11367820)
    77a ->  92a  :     0.034405 (c=  0.18548592)
    80a ->  92a  :     0.050901 (c=  0.22561301)
    81a ->  92a  :     0.181739 (c=  0.42630842)
    82a ->  92a  :     0.485632 (c=  0.69687274)
    87a ->  93a  :     0.014976 (c=  0.12237446)
    88a ->  93a  :     0.024982 (c= -0.15805743)
    88a ->  96a  :     0.013755 (c=  0.11728217)
    91a -> 105a  :     0.012450 (c=  0.11157900)


-----------------------------
TD-DFT/TDA-EXCITATION SPECTRA
-----------------------------

Center of mass = ( -0.2780, -0.1170,  0.0570)
Calculating the Dipole integrals                  ... done
Transforming integrals                            ... done
Calculating the Linear Momentum integrals         ... done
Transforming integrals                            ... done
Calculating angular momentum integrals            ... done
Transforming integrals                            ... done

-----------------------------------------------------------------------------
         ABSORPTION SPECTRUM VIA TRANSITION ELECTRIC DIPOLE MOMENTS
-----------------------------------------------------------------------------
State   Energy    Wavelength  fosc         T2        TX        TY        TZ  
        (cm-1)      (nm)                 (au**2)    (au)      (au)      (au) 
-----------------------------------------------------------------------------
   1   21770.3    459.3   1.976657009  29.89113   5.35802   0.32718   1.03716
   2   33454.7    298.9   0.016510199   0.16247  -0.39766  -0.01986  -0.06276
   3   34204.5    292.4   0.243649064   2.34508   1.51929  -0.05512   0.18387
   4   35556.6    281.2   0.002312819   0.02141   0.14222   0.02137   0.02702
   5   37800.5    264.5   0.000269896   0.00235  -0.01665  -0.02830   0.03567
   6   38786.0    257.8   0.000870482   0.00739   0.07172   0.03763   0.02879
   7   39884.5    250.7   0.000133732   0.00110  -0.00282  -0.01705   0.02838
   8   44723.0    223.6   0.149080856   1.09741   1.03650  -0.14057   0.05763
   9   45266.9    220.9   0.000911456   0.00663  -0.01562  -0.04520   0.06589
  10   46371.8    215.6   0.000034045   0.00024   0.00353  -0.01123   0.01015

-----------------------------------------------------------------------------
         ABSORPTION SPECTRUM VIA TRANSITION VELOCITY DIPOLE MOMENTS
-----------------------------------------------------------------------------
State   Energy    Wavelength   fosc        P2         PX        PY        PZ  
        (cm-1)      (nm)                 (au**2)     (au)      (au)      (au) 
-----------------------------------------------------------------------------
   1   21770.3    459.3   0.931611996   0.13861  -0.36940   0.04020  -0.02326
   2   33454.7    298.9   0.003161084   0.00072   0.02548   0.00511   0.00687
   3   34204.5    292.4   0.097815358   0.02287  -0.14763  -0.01167  -0.03059
   4   35556.6    281.2   0.000130606   0.00003  -0.00503   0.00209   0.00145
   5   37800.5    264.5   0.000993553   0.00026  -0.00071  -0.00985   0.01261
   6   38786.0    257.8   0.000228843   0.00006  -0.00069   0.00541   0.00556
   7   39884.5    250.7   0.000499181   0.00014  -0.00118  -0.00764   0.00873
   8   44723.0    223.6   0.093776062   0.02866  -0.16266   0.04607   0.00901
   9   45266.9    220.9   0.002455749   0.00076   0.00407   0.01537  -0.02252
  10   46371.8    215.6   0.001012074   0.00032  -0.00313  -0.01014   0.01443

-------------------------------------------------------------------
                             CD SPECTRUM
-------------------------------------------------------------------
State  Energy     Wavelength     R         MX        MY        MZ   
       (cm-1)       (nm)     (1e40*cgs)   (au)      (au)      (au)  
-------------------------------------------------------------------
   1   21770.3    459.3      2.83380  -0.00221  -0.02648   0.02559
   2   33454.7    298.9     -0.18366   0.00728   0.03970  -0.05249
   3   34204.5    292.4      1.44886   0.00705   0.02348  -0.03451
   4   35556.6    281.2     -2.41105  -0.07376  -0.38561   0.50402
   5   37800.5    264.5     -0.42674   0.00531   0.20712   0.14139
   6   38786.0    257.8     -2.75330  -0.08611  -0.45867   0.61111
   7   39884.5    250.7     -0.17533  -0.24615  -0.03213  -0.05685
   8   44723.0    223.6      0.56797   0.00062  -0.00397  -0.00000
   9   45266.9    220.9      0.21888   0.00666   0.11314   0.08623
  10   46371.8    215.6      0.04180   0.04793   0.02172   0.01609

-------------------------------------------------------------------
         CD SPECTRUM VIA TRANSITION VELOCITY DIPOLE MOMENTS        
-------------------------------------------------------------------
State  Energy     Wavelength     R         MX        MY        MZ   
       (cm-1)       (nm)     (1e40*cgs)   (au)      (au)      (au)  
-------------------------------------------------------------------
   1   21770.3    459.3     -3.99976  -0.00221  -0.02648   0.02559
   2   33454.7    298.9      0.08553   0.00728   0.03970  -0.05249
   3   34204.5    292.4     -0.78470   0.00705   0.02348  -0.03451
   4   35556.6    281.2      0.86405  -0.07376  -0.38561   0.50402
   5   37800.5    264.5     -0.71532   0.00531   0.20712   0.14139
   6   38786.0    257.8      2.61125  -0.08611  -0.45867   0.61111
   7   39884.5    250.7      0.10190  -0.24615  -0.03213  -0.05685
   8   44723.0    223.6     -0.65815   0.00062  -0.00397  -0.00000
   9   45266.9    220.9     -0.40290   0.00666   0.11314   0.08623
  10   46371.8    215.6     -0.30767   0.04793   0.02172   0.01609

Total run time:     2128.742 sec

           *** ORCA-CIS/TD-DFT FINISHED WITHOUT ERROR ***

Maximum memory used throughout the entire CIS-calculation: 2321.9 MB

-----------------------
CIS/TD-DFT TOTAL ENERGY
-----------------------

    E(SCF)  =  -1822.550739384 Eh
    DE(CIS) =      0.099192816 Eh (Root  1)
    ----------------------------- ---------
    E(tot)  =  -1822.451546568 Eh



-------------------------------------------------------------------------------
                          DFT DISPERSION CORRECTION                            
                                                                               
                              DFTD3 V3.1  Rev 1                                
                              USING zero damping                               
-------------------------------------------------------------------------------
The omegaB97X-D3 functional is recognized. Fit by Chai et al.
Active option DFTDOPT                   ...         3   

molecular C6(AA) [au] = 20015.849276 


            DFT-D V3
 parameters
 s6 scaling factor         :     1.0000 
 rs6 scaling factor        :     1.2810 
 s8 scaling factor         :     1.0000 
 rs8 scaling factor        :     1.0940 
 Damping factor alpha6     :    14.0000 
 Damping factor alpha8     :    16.0000 
 ad hoc parameters k1-k3   :    16.0000     1.3333    -4.0000 

 Edisp/kcal,au: -8.940584438030  -0.014247726694 
 E6   /kcal   :  -3.746194234 
 E8   /kcal   :  -5.194390204 
 % E8         :  58.099000571 

-------------------------   ----------------
Dispersion correction           -0.014247727
-------------------------   ----------------


-------------------------   --------------------
FINAL SINGLE POINT ENERGY     -1822.465794294899
-------------------------   --------------------


                            ***************************************
                            *     ORCA property calculations      *
                            ***************************************

                                    ---------------------
                                    Active property flags
                                    ---------------------
   (+) Dipole Moment


------------------------------------------------------------------------------
                       ORCA ELECTRIC PROPERTIES CALCULATION
------------------------------------------------------------------------------

Dipole Moment Calculation                       ... on
Quadrupole Moment Calculation                   ... off
Polarizability Calculation                      ... off
GBWName                                         ... wb97x-d3-train-6_job2.gbw
Electron density                                ... wb97x-d3-train-6_job2.scfp
The origin for moment calculation is the CENTER OF MASS  = (-0.278003, -0.117000  0.056972)

-------------
DIPOLE MOMENT
-------------
                                X             Y             Z
Electronic contribution:     -3.35768      -1.40957      -1.59437
Nuclear contribution   :      4.73637       2.00946       2.22398
                        -----------------------------------------
Total Dipole Moment    :      1.37869       0.59989       0.62962
                        -----------------------------------------
Magnitude (a.u.)       :      1.63005
Magnitude (Debye)      :      4.14327



--------------------
Rotational spectrum 
--------------------
 
Rotational constants in cm-1:     0.019992     0.002516     0.002237 
Rotational constants in MHz :   599.351871    75.423082    67.050260 

 Dipole components along the rotational axes: 
x,y,z [a.u.] :    -1.364261     0.891720    -0.026520 
x,y,z [Debye]:    -3.467675     2.266572    -0.067408 

 

Timings for individual modules:

Sum of individual times         ...     2804.931 sec (=  46.749 min)
GTO integral calculation        ...        6.686 sec (=   0.111 min)   0.2 %
SCF iterations                  ...      668.870 sec (=  11.148 min)  23.8 %
CIS module                      ...     2129.375 sec (=  35.490 min)  75.9 %



                             ****ORCA TERMINATED NORMALLY****
TOTAL RUN TIME: 0 days 8 hours 12 minutes 38 seconds 132 msec
